  12  12   1   0
  0.1527438E+02  0.3416010E-09  0.7366590E-09  0.7283820E-09  0.1000000E-15
  1.000000000000000E-004
  CAR 
 DFT routine                             
      7.38483912    -38.99710155  301      2.68939780      1.00000000
    -38.997  0.0000E+00  0.0000E+00
    -38.842  0.0000E+00  0.0000E+00
    -38.688  0.0000E+00  0.0000E+00
    -38.533  0.0000E+00  0.0000E+00
    -38.379  0.0000E+00  0.0000E+00
    -38.224  0.0000E+00  0.0000E+00
    -38.069  0.0000E+00  0.0000E+00
    -37.915  0.0000E+00  0.0000E+00
    -37.760  0.0000E+00  0.0000E+00
    -37.606  0.0000E+00  0.0000E+00
    -37.451  0.0000E+00  0.0000E+00
    -37.296  0.0000E+00  0.0000E+00
    -37.142  0.0000E+00  0.0000E+00
    -36.987  0.0000E+00  0.0000E+00
    -36.833  0.5174E+01  0.8000E+00
    -36.678  0.0000E+00  0.8000E+00
    -36.523  0.0000E+00  0.8000E+00
    -36.369  0.0000E+00  0.8000E+00
    -36.214  0.0000E+00  0.8000E+00
    -36.060  0.0000E+00  0.8000E+00
    -35.905  0.0000E+00  0.8000E+00
    -35.750  0.0000E+00  0.8000E+00
    -35.596  0.0000E+00  0.8000E+00
    -35.441  0.0000E+00  0.8000E+00
    -35.287  0.0000E+00  0.8000E+00
    -35.132  0.0000E+00  0.8000E+00
    -34.977  0.0000E+00  0.8000E+00
    -34.823  0.0000E+00  0.8000E+00
    -34.668  0.0000E+00  0.8000E+00
    -34.514  0.0000E+00  0.8000E+00
    -34.359  0.0000E+00  0.8000E+00
    -34.204  0.0000E+00  0.8000E+00
    -34.050  0.0000E+00  0.8000E+00
    -33.895  0.0000E+00  0.8000E+00
    -33.740  0.0000E+00  0.8000E+00
    -33.586  0.0000E+00  0.8000E+00
    -33.431  0.0000E+00  0.8000E+00
    -33.277  0.0000E+00  0.8000E+00
    -33.122  0.0000E+00  0.8000E+00
    -32.967  0.0000E+00  0.8000E+00
    -32.813  0.0000E+00  0.8000E+00
    -32.658  0.0000E+00  0.8000E+00
    -32.504  0.0000E+00  0.8000E+00
    -32.349  0.0000E+00  0.8000E+00
    -32.194  0.0000E+00  0.8000E+00
    -32.040  0.0000E+00  0.8000E+00
    -31.885  0.0000E+00  0.8000E+00
    -31.731  0.0000E+00  0.8000E+00
    -31.576  0.0000E+00  0.8000E+00
    -31.421  0.0000E+00  0.8000E+00
    -31.267  0.0000E+00  0.8000E+00
    -31.112  0.0000E+00  0.8000E+00
    -30.958  0.0000E+00  0.8000E+00
    -30.803  0.0000E+00  0.8000E+00
    -30.648  0.0000E+00  0.8000E+00
    -30.494  0.0000E+00  0.8000E+00
    -30.339  0.0000E+00  0.8000E+00
    -30.185  0.0000E+00  0.8000E+00
    -30.030  0.0000E+00  0.8000E+00
    -29.875  0.0000E+00  0.8000E+00
    -29.721  0.0000E+00  0.8000E+00
    -29.566  0.0000E+00  0.8000E+00
    -29.412  0.0000E+00  0.8000E+00
    -29.257  0.0000E+00  0.8000E+00
    -29.102  0.0000E+00  0.8000E+00
    -28.948  0.0000E+00  0.8000E+00
    -28.793  0.0000E+00  0.8000E+00
    -28.638  0.0000E+00  0.8000E+00
    -28.484  0.0000E+00  0.8000E+00
    -28.329  0.0000E+00  0.8000E+00
    -28.175  0.0000E+00  0.8000E+00
    -28.020  0.0000E+00  0.8000E+00
    -27.865  0.0000E+00  0.8000E+00
    -27.711  0.0000E+00  0.8000E+00
    -27.556  0.0000E+00  0.8000E+00
    -27.402  0.0000E+00  0.8000E+00
    -27.247  0.0000E+00  0.8000E+00
    -27.092  0.0000E+00  0.8000E+00
    -26.938  0.0000E+00  0.8000E+00
    -26.783  0.0000E+00  0.8000E+00
    -26.629  0.0000E+00  0.8000E+00
    -26.474  0.0000E+00  0.8000E+00
    -26.319  0.0000E+00  0.8000E+00
    -26.165  0.0000E+00  0.8000E+00
    -26.010  0.0000E+00  0.8000E+00
    -25.856  0.0000E+00  0.8000E+00
    -25.701  0.0000E+00  0.8000E+00
    -25.546  0.0000E+00  0.8000E+00
    -25.392  0.0000E+00  0.8000E+00
    -25.237  0.0000E+00  0.8000E+00
    -25.083  0.0000E+00  0.8000E+00
    -24.928  0.0000E+00  0.8000E+00
    -24.773  0.0000E+00  0.8000E+00
    -24.619  0.0000E+00  0.8000E+00
    -24.464  0.0000E+00  0.8000E+00
    -24.309  0.0000E+00  0.8000E+00
    -24.155  0.0000E+00  0.8000E+00
    -24.000  0.0000E+00  0.8000E+00
    -23.846  0.0000E+00  0.8000E+00
    -23.691  0.0000E+00  0.8000E+00
    -23.536  0.0000E+00  0.8000E+00
    -23.382  0.0000E+00  0.8000E+00
    -23.227  0.0000E+00  0.8000E+00
    -23.073  0.0000E+00  0.8000E+00
    -22.918  0.0000E+00  0.8000E+00
    -22.763  0.0000E+00  0.8000E+00
    -22.609  0.0000E+00  0.8000E+00
    -22.454  0.0000E+00  0.8000E+00
    -22.300  0.0000E+00  0.8000E+00
    -22.145  0.0000E+00  0.8000E+00
    -21.990  0.0000E+00  0.8000E+00
    -21.836  0.0000E+00  0.8000E+00
    -21.681  0.0000E+00  0.8000E+00
    -21.527  0.0000E+00  0.8000E+00
    -21.372  0.0000E+00  0.8000E+00
    -21.217  0.0000E+00  0.8000E+00
    -21.063  0.0000E+00  0.8000E+00
    -20.908  0.0000E+00  0.8000E+00
    -20.754  0.0000E+00  0.8000E+00
    -20.599  0.0000E+00  0.8000E+00
    -20.444  0.0000E+00  0.8000E+00
    -20.290  0.0000E+00  0.8000E+00
    -20.135  0.0000E+00  0.8000E+00
    -19.981  0.0000E+00  0.8000E+00
    -19.826  0.0000E+00  0.8000E+00
    -19.671  0.0000E+00  0.8000E+00
    -19.517  0.0000E+00  0.8000E+00
    -19.362  0.0000E+00  0.8000E+00
    -19.207  0.0000E+00  0.8000E+00
    -19.053  0.0000E+00  0.8000E+00
    -18.898  0.0000E+00  0.8000E+00
    -18.744  0.0000E+00  0.8000E+00
    -18.589  0.0000E+00  0.8000E+00
    -18.434  0.0000E+00  0.8000E+00
    -18.280  0.0000E+00  0.8000E+00
    -18.125  0.4001E-06  0.8000E+00
    -17.971  0.5254E+01  0.1790E+01
    -17.816  0.2882E+01  0.3200E+01
    -17.661  0.0000E+00  0.3200E+01
    -17.507  0.0000E+00  0.3200E+01
    -17.352  0.0000E+00  0.3200E+01
    -17.198  0.0000E+00  0.3200E+01
    -17.043  0.0000E+00  0.3200E+01
    -16.888  0.0000E+00  0.3200E+01
    -16.734  0.0000E+00  0.3200E+01
    -16.579  0.0000E+00  0.3200E+01
    -16.425  0.0000E+00  0.3200E+01
    -16.270  0.0000E+00  0.3200E+01
    -16.115  0.0000E+00  0.3200E+01
    -15.961  0.0000E+00  0.3200E+01
    -15.806  0.0000E+00  0.3200E+01
    -15.652  0.0000E+00  0.3200E+01
    -15.497  0.0000E+00  0.3200E+01
    -15.342  0.0000E+00  0.3200E+01
    -15.188  0.0000E+00  0.3200E+01
    -15.033  0.0000E+00  0.3200E+01
    -14.878  0.0000E+00  0.3200E+01
    -14.724  0.0000E+00  0.3200E+01
    -14.569  0.0000E+00  0.3200E+01
    -14.415  0.0000E+00  0.3200E+01
    -14.260  0.0000E+00  0.3200E+01
    -14.105  0.0000E+00  0.3200E+01
    -13.951  0.0000E+00  0.3200E+01
    -13.796  0.0000E+00  0.3200E+01
    -13.642  0.0000E+00  0.3200E+01
    -13.487  0.0000E+00  0.3200E+01
    -13.332  0.0000E+00  0.3200E+01
    -13.178  0.0000E+00  0.3200E+01
    -13.023  0.0000E+00  0.3200E+01
    -12.869  0.0000E+00  0.3200E+01
    -12.714  0.0000E+00  0.3200E+01
    -12.559  0.0000E+00  0.3200E+01
    -12.405  0.0000E+00  0.3200E+01
    -12.250  0.0000E+00  0.3200E+01
    -12.096  0.0000E+00  0.3200E+01
    -11.941  0.0000E+00  0.3200E+01
    -11.786  0.0000E+00  0.3200E+01
    -11.632  0.0000E+00  0.3200E+01
    -11.477  0.0000E+00  0.3200E+01
    -11.323  0.0000E+00  0.3200E+01
    -11.168  0.0000E+00  0.3200E+01
    -11.013  0.0000E+00  0.3200E+01
    -10.859  0.0000E+00  0.3200E+01
    -10.704  0.0000E+00  0.3200E+01
    -10.550  0.0000E+00  0.3200E+01
    -10.395  0.0000E+00  0.3200E+01
    -10.240  0.0000E+00  0.3200E+01
    -10.086  0.0000E+00  0.3200E+01
     -9.931  0.0000E+00  0.3200E+01
     -9.776  0.0000E+00  0.3200E+01
     -9.622  0.0000E+00  0.3200E+01
     -9.467  0.0000E+00  0.3200E+01
     -9.313  0.0000E+00  0.3200E+01
     -9.158  0.0000E+00  0.3200E+01
     -9.003  0.0000E+00  0.3200E+01
     -8.849  0.0000E+00  0.3200E+01
     -8.694  0.0000E+00  0.3200E+01
     -8.540  0.0000E+00  0.3200E+01
     -8.385  0.0000E+00  0.3200E+01
     -8.230  0.0000E+00  0.3200E+01
     -8.076  0.0000E+00  0.3200E+01
     -7.921  0.0000E+00  0.3200E+01
     -7.767  0.0000E+00  0.3200E+01
     -7.612  0.0000E+00  0.3200E+01
     -7.457  0.0000E+00  0.3200E+01
     -7.303  0.0000E+00  0.3200E+01
     -7.148  0.0000E+00  0.3200E+01
     -6.994  0.0000E+00  0.3200E+01
     -6.839  0.0000E+00  0.3200E+01
     -6.684  0.0000E+00  0.3200E+01
     -6.530  0.0000E+00  0.3200E+01
     -6.375  0.0000E+00  0.3200E+01
     -6.221  0.0000E+00  0.3200E+01
     -6.066  0.0000E+00  0.3200E+01
     -5.911  0.0000E+00  0.3200E+01
     -5.757  0.0000E+00  0.3200E+01
     -5.602  0.0000E+00  0.3200E+01
     -5.447  0.0000E+00  0.3200E+01
     -5.293  0.0000E+00  0.3200E+01
     -5.138  0.0000E+00  0.3200E+01
     -4.984  0.4094E-09  0.3200E+01
     -4.829  0.5223E-02  0.3202E+01
     -4.674  0.6381E-01  0.3220E+01
     -4.520  0.7187E-01  0.3238E+01
     -4.365  0.8164E-01  0.3256E+01
     -4.211  0.2156E+00  0.3301E+01
     -4.056  0.8671E-01  0.3320E+01
     -3.901  0.1755E+00  0.3373E+01
     -3.747  0.2282E+00  0.3471E+01
     -3.592  0.3103E+00  0.3556E+01
     -3.438  0.2241E+00  0.3624E+01
     -3.283  0.2496E+00  0.3677E+01
     -3.128  0.8560E-01  0.3751E+01
     -2.974  0.7186E-01  0.3782E+01
     -2.819  0.2143E+00  0.3815E+01
     -2.665  0.1553E+00  0.3867E+01
     -2.510  0.1078E+00  0.3918E+01
     -2.355  0.1071E+00  0.3951E+01
     -2.201  0.7517E-01  0.3974E+01
     -2.046  0.3593E-01  0.3992E+01
     -1.892  0.1797E-01  0.4000E+01
     -1.737  0.0000E+00  0.4000E+01
     -1.582  0.0000E+00  0.4000E+01
     -1.428  0.0000E+00  0.4000E+01
     -1.273  0.0000E+00  0.4000E+01
     -1.119  0.0000E+00  0.4000E+01
     -0.964  0.7210E-02  0.4001E+01
     -0.809  0.8460E-01  0.4028E+01
     -0.655  0.8989E-01  0.4058E+01
     -0.500  0.3920E-01  0.4078E+01
     -0.345  0.5215E-01  0.4097E+01
     -0.191  0.2632E+00  0.4155E+01
     -0.036  0.4042E+00  0.4256E+01
      0.118  0.3245E+00  0.4328E+01
      0.273  0.4585E+00  0.4460E+01
      0.428  0.3240E+00  0.4567E+01
      0.582  0.4049E+00  0.4696E+01
      0.737  0.6667E+00  0.4895E+01
      0.891  0.6305E+00  0.5110E+01
      1.046  0.7219E+00  0.5299E+01
      1.201  0.7237E+00  0.5484E+01
      1.355  0.1078E+00  0.5606E+01
      1.510  0.1076E+01  0.5919E+01
      1.664  0.8448E+00  0.6106E+01
      1.819  0.6524E+00  0.6368E+01
      1.974  0.5036E+00  0.6506E+01
      2.128  0.7893E+00  0.6786E+01
      2.283  0.1759E+01  0.7193E+01
      2.437  0.1423E+01  0.7583E+01
      2.592  0.1432E+01  0.7951E+01
      2.747  0.1087E+01  0.8499E+01
      2.901  0.2551E+00  0.8620E+01
      3.056  0.2373E+00  0.8706E+01
      3.210  0.4489E+00  0.8887E+01
      3.365  0.4884E+00  0.9023E+01
      3.520  0.7256E+00  0.9214E+01
      3.674  0.1170E+00  0.9288E+01
      3.829  0.5173E+00  0.9388E+01
      3.983  0.3231E+00  0.9550E+01
      4.138  0.2056E+00  0.9612E+01
      4.293  0.1109E+00  0.9656E+01
      4.447  0.3951E+00  0.9783E+01
      4.602  0.8080E-01  0.9843E+01
      4.757  0.1195E+00  0.9878E+01
      4.911  0.1612E+00  0.9917E+01
      5.066  0.2074E+00  0.9960E+01
      5.220  0.5390E-01  0.9994E+01
      5.375  0.0000E+00  0.1000E+02
      5.530  0.0000E+00  0.1000E+02
      5.684  0.0000E+00  0.1000E+02
      5.839  0.0000E+00  0.1000E+02
      5.993  0.0000E+00  0.1000E+02
      6.148  0.0000E+00  0.1000E+02
      6.303  0.0000E+00  0.1000E+02
      6.457  0.0000E+00  0.1000E+02
      6.612  0.0000E+00  0.1000E+02
      6.766  0.0000E+00  0.1000E+02
      6.921  0.0000E+00  0.1000E+02
      7.076  0.0000E+00  0.1000E+02
      7.230  0.0000E+00  0.1000E+02
      7.385  0.0000E+00  0.1000E+02
      7.38483912    -38.99710155  301      2.68939780      1.00000000
    -38.997  0.0000E+00  0.0000E+00  0.0000E+00
    -38.842  0.0000E+00  0.0000E+00  0.0000E+00
    -38.688  0.0000E+00  0.0000E+00  0.0000E+00
    -38.533  0.0000E+00  0.0000E+00  0.0000E+00
    -38.379  0.0000E+00  0.0000E+00  0.0000E+00
    -38.224  0.0000E+00  0.0000E+00  0.0000E+00
    -38.069  0.0000E+00  0.0000E+00  0.0000E+00
    -37.915  0.0000E+00  0.0000E+00  0.0000E+00
    -37.760  0.0000E+00  0.0000E+00  0.0000E+00
    -37.606  0.0000E+00  0.0000E+00  0.0000E+00
    -37.451  0.0000E+00  0.0000E+00  0.0000E+00
    -37.296  0.0000E+00  0.0000E+00  0.0000E+00
    -37.142  0.0000E+00  0.0000E+00  0.0000E+00
    -36.987  0.0000E+00  0.0000E+00  0.0000E+00
    -36.833  0.1274E+02  0.8270E-05  0.1635E-04
    -36.678  0.0000E+00  0.0000E+00  0.0000E+00
    -36.523  0.0000E+00  0.0000E+00  0.0000E+00
    -36.369  0.0000E+00  0.0000E+00  0.0000E+00
    -36.214  0.0000E+00  0.0000E+00  0.0000E+00
    -36.060  0.0000E+00  0.0000E+00  0.0000E+00
    -35.905  0.0000E+00  0.0000E+00  0.0000E+00
    -35.750  0.0000E+00  0.0000E+00  0.0000E+00
    -35.596  0.0000E+00  0.0000E+00  0.0000E+00
    -35.441  0.0000E+00  0.0000E+00  0.0000E+00
    -35.287  0.0000E+00  0.0000E+00  0.0000E+00
    -35.132  0.0000E+00  0.0000E+00  0.0000E+00
    -34.977  0.0000E+00  0.0000E+00  0.0000E+00
    -34.823  0.0000E+00  0.0000E+00  0.0000E+00
    -34.668  0.0000E+00  0.0000E+00  0.0000E+00
    -34.514  0.0000E+00  0.0000E+00  0.0000E+00
    -34.359  0.0000E+00  0.0000E+00  0.0000E+00
    -34.204  0.0000E+00  0.0000E+00  0.0000E+00
    -34.050  0.0000E+00  0.0000E+00  0.0000E+00
    -33.895  0.0000E+00  0.0000E+00  0.0000E+00
    -33.740  0.0000E+00  0.0000E+00  0.0000E+00
    -33.586  0.0000E+00  0.0000E+00  0.0000E+00
    -33.431  0.0000E+00  0.0000E+00  0.0000E+00
    -33.277  0.0000E+00  0.0000E+00  0.0000E+00
    -33.122  0.0000E+00  0.0000E+00  0.0000E+00
    -32.967  0.0000E+00  0.0000E+00  0.0000E+00
    -32.813  0.0000E+00  0.0000E+00  0.0000E+00
    -32.658  0.0000E+00  0.0000E+00  0.0000E+00
    -32.504  0.0000E+00  0.0000E+00  0.0000E+00
    -32.349  0.0000E+00  0.0000E+00  0.0000E+00
    -32.194  0.0000E+00  0.0000E+00  0.0000E+00
    -32.040  0.0000E+00  0.0000E+00  0.0000E+00
    -31.885  0.0000E+00  0.0000E+00  0.0000E+00
    -31.731  0.0000E+00  0.0000E+00  0.0000E+00
    -31.576  0.0000E+00  0.0000E+00  0.0000E+00
    -31.421  0.0000E+00  0.0000E+00  0.0000E+00
    -31.267  0.0000E+00  0.0000E+00  0.0000E+00
    -31.112  0.0000E+00  0.0000E+00  0.0000E+00
    -30.958  0.0000E+00  0.0000E+00  0.0000E+00
    -30.803  0.0000E+00  0.0000E+00  0.0000E+00
    -30.648  0.0000E+00  0.0000E+00  0.0000E+00
    -30.494  0.0000E+00  0.0000E+00  0.0000E+00
    -30.339  0.0000E+00  0.0000E+00  0.0000E+00
    -30.185  0.0000E+00  0.0000E+00  0.0000E+00
    -30.030  0.0000E+00  0.0000E+00  0.0000E+00
    -29.875  0.0000E+00  0.0000E+00  0.0000E+00
    -29.721  0.0000E+00  0.0000E+00  0.0000E+00
    -29.566  0.0000E+00  0.0000E+00  0.0000E+00
    -29.412  0.0000E+00  0.0000E+00  0.0000E+00
    -29.257  0.0000E+00  0.0000E+00  0.0000E+00
    -29.102  0.0000E+00  0.0000E+00  0.0000E+00
    -28.948  0.0000E+00  0.0000E+00  0.0000E+00
    -28.793  0.0000E+00  0.0000E+00  0.0000E+00
    -28.638  0.0000E+00  0.0000E+00  0.0000E+00
    -28.484  0.0000E+00  0.0000E+00  0.0000E+00
    -28.329  0.0000E+00  0.0000E+00  0.0000E+00
    -28.175  0.0000E+00  0.0000E+00  0.0000E+00
    -28.020  0.0000E+00  0.0000E+00  0.0000E+00
    -27.865  0.0000E+00  0.0000E+00  0.0000E+00
    -27.711  0.0000E+00  0.0000E+00  0.0000E+00
    -27.556  0.0000E+00  0.0000E+00  0.0000E+00
    -27.402  0.0000E+00  0.0000E+00  0.0000E+00
    -27.247  0.0000E+00  0.0000E+00  0.0000E+00
    -27.092  0.0000E+00  0.0000E+00  0.0000E+00
    -26.938  0.0000E+00  0.0000E+00  0.0000E+00
    -26.783  0.0000E+00  0.0000E+00  0.0000E+00
    -26.629  0.0000E+00  0.0000E+00  0.0000E+00
    -26.474  0.0000E+00  0.0000E+00  0.0000E+00
    -26.319  0.0000E+00  0.0000E+00  0.0000E+00
    -26.165  0.0000E+00  0.0000E+00  0.0000E+00
    -26.010  0.0000E+00  0.0000E+00  0.0000E+00
    -25.856  0.0000E+00  0.0000E+00  0.0000E+00
    -25.701  0.0000E+00  0.0000E+00  0.0000E+00
    -25.546  0.0000E+00  0.0000E+00  0.0000E+00
    -25.392  0.0000E+00  0.0000E+00  0.0000E+00
    -25.237  0.0000E+00  0.0000E+00  0.0000E+00
    -25.083  0.0000E+00  0.0000E+00  0.0000E+00
    -24.928  0.0000E+00  0.0000E+00  0.0000E+00
    -24.773  0.0000E+00  0.0000E+00  0.0000E+00
    -24.619  0.0000E+00  0.0000E+00  0.0000E+00
    -24.464  0.0000E+00  0.0000E+00  0.0000E+00
    -24.309  0.0000E+00  0.0000E+00  0.0000E+00
    -24.155  0.0000E+00  0.0000E+00  0.0000E+00
    -24.000  0.0000E+00  0.0000E+00  0.0000E+00
    -23.846  0.0000E+00  0.0000E+00  0.0000E+00
    -23.691  0.0000E+00  0.0000E+00  0.0000E+00
    -23.536  0.0000E+00  0.0000E+00  0.0000E+00
    -23.382  0.0000E+00  0.0000E+00  0.0000E+00
    -23.227  0.0000E+00  0.0000E+00  0.0000E+00
    -23.073  0.0000E+00  0.0000E+00  0.0000E+00
    -22.918  0.0000E+00  0.0000E+00  0.0000E+00
    -22.763  0.0000E+00  0.0000E+00  0.0000E+00
    -22.609  0.0000E+00  0.0000E+00  0.0000E+00
    -22.454  0.0000E+00  0.0000E+00  0.0000E+00
    -22.300  0.0000E+00  0.0000E+00  0.0000E+00
    -22.145  0.0000E+00  0.0000E+00  0.0000E+00
    -21.990  0.0000E+00  0.0000E+00  0.0000E+00
    -21.836  0.0000E+00  0.0000E+00  0.0000E+00
    -21.681  0.0000E+00  0.0000E+00  0.0000E+00
    -21.527  0.0000E+00  0.0000E+00  0.0000E+00
    -21.372  0.0000E+00  0.0000E+00  0.0000E+00
    -21.217  0.0000E+00  0.0000E+00  0.0000E+00
    -21.063  0.0000E+00  0.0000E+00  0.0000E+00
    -20.908  0.0000E+00  0.0000E+00  0.0000E+00
    -20.754  0.0000E+00  0.0000E+00  0.0000E+00
    -20.599  0.0000E+00  0.0000E+00  0.0000E+00
    -20.444  0.0000E+00  0.0000E+00  0.0000E+00
    -20.290  0.0000E+00  0.0000E+00  0.0000E+00
    -20.135  0.0000E+00  0.0000E+00  0.0000E+00
    -19.981  0.0000E+00  0.0000E+00  0.0000E+00
    -19.826  0.0000E+00  0.0000E+00  0.0000E+00
    -19.671  0.0000E+00  0.0000E+00  0.0000E+00
    -19.517  0.0000E+00  0.0000E+00  0.0000E+00
    -19.362  0.0000E+00  0.0000E+00  0.0000E+00
    -19.207  0.0000E+00  0.0000E+00  0.0000E+00
    -19.053  0.0000E+00  0.0000E+00  0.0000E+00
    -18.898  0.0000E+00  0.0000E+00  0.0000E+00
    -18.744  0.0000E+00  0.0000E+00  0.0000E+00
    -18.589  0.0000E+00  0.0000E+00  0.0000E+00
    -18.434  0.0000E+00  0.0000E+00  0.0000E+00
    -18.280  0.0000E+00  0.0000E+00  0.0000E+00
    -18.125  0.3992E-11  0.9405E-06  0.4063E-11
    -17.971  0.1001E-03  0.1249E+02  0.1218E-03
    -17.816  0.4113E-04  0.6926E+01  0.5677E-04
    -17.661  0.0000E+00  0.0000E+00  0.0000E+00
    -17.507  0.0000E+00  0.0000E+00  0.0000E+00
    -17.352  0.0000E+00  0.0000E+00  0.0000E+00
    -17.198  0.0000E+00  0.0000E+00  0.0000E+00
    -17.043  0.0000E+00  0.0000E+00  0.0000E+00
    -16.888  0.0000E+00  0.0000E+00  0.0000E+00
    -16.734  0.0000E+00  0.0000E+00  0.0000E+00
    -16.579  0.0000E+00  0.0000E+00  0.0000E+00
    -16.425  0.0000E+00  0.0000E+00  0.0000E+00
    -16.270  0.0000E+00  0.0000E+00  0.0000E+00
    -16.115  0.0000E+00  0.0000E+00  0.0000E+00
    -15.961  0.0000E+00  0.0000E+00  0.0000E+00
    -15.806  0.0000E+00  0.0000E+00  0.0000E+00
    -15.652  0.0000E+00  0.0000E+00  0.0000E+00
    -15.497  0.0000E+00  0.0000E+00  0.0000E+00
    -15.342  0.0000E+00  0.0000E+00  0.0000E+00
    -15.188  0.0000E+00  0.0000E+00  0.0000E+00
    -15.033  0.0000E+00  0.0000E+00  0.0000E+00
    -14.878  0.0000E+00  0.0000E+00  0.0000E+00
    -14.724  0.0000E+00  0.0000E+00  0.0000E+00
    -14.569  0.0000E+00  0.0000E+00  0.0000E+00
    -14.415  0.0000E+00  0.0000E+00  0.0000E+00
    -14.260  0.0000E+00  0.0000E+00  0.0000E+00
    -14.105  0.0000E+00  0.0000E+00  0.0000E+00
    -13.951  0.0000E+00  0.0000E+00  0.0000E+00
    -13.796  0.0000E+00  0.0000E+00  0.0000E+00
    -13.642  0.0000E+00  0.0000E+00  0.0000E+00
    -13.487  0.0000E+00  0.0000E+00  0.0000E+00
    -13.332  0.0000E+00  0.0000E+00  0.0000E+00
    -13.178  0.0000E+00  0.0000E+00  0.0000E+00
    -13.023  0.0000E+00  0.0000E+00  0.0000E+00
    -12.869  0.0000E+00  0.0000E+00  0.0000E+00
    -12.714  0.0000E+00  0.0000E+00  0.0000E+00
    -12.559  0.0000E+00  0.0000E+00  0.0000E+00
    -12.405  0.0000E+00  0.0000E+00  0.0000E+00
    -12.250  0.0000E+00  0.0000E+00  0.0000E+00
    -12.096  0.0000E+00  0.0000E+00  0.0000E+00
    -11.941  0.0000E+00  0.0000E+00  0.0000E+00
    -11.786  0.0000E+00  0.0000E+00  0.0000E+00
    -11.632  0.0000E+00  0.0000E+00  0.0000E+00
    -11.477  0.0000E+00  0.0000E+00  0.0000E+00
    -11.323  0.0000E+00  0.0000E+00  0.0000E+00
    -11.168  0.0000E+00  0.0000E+00  0.0000E+00
    -11.013  0.0000E+00  0.0000E+00  0.0000E+00
    -10.859  0.0000E+00  0.0000E+00  0.0000E+00
    -10.704  0.0000E+00  0.0000E+00  0.0000E+00
    -10.550  0.0000E+00  0.0000E+00  0.0000E+00
    -10.395  0.0000E+00  0.0000E+00  0.0000E+00
    -10.240  0.0000E+00  0.0000E+00  0.0000E+00
    -10.086  0.0000E+00  0.0000E+00  0.0000E+00
     -9.931  0.0000E+00  0.0000E+00  0.0000E+00
     -9.776  0.0000E+00  0.0000E+00  0.0000E+00
     -9.622  0.0000E+00  0.0000E+00  0.0000E+00
     -9.467  0.0000E+00  0.0000E+00  0.0000E+00
     -9.313  0.0000E+00  0.0000E+00  0.0000E+00
     -9.158  0.0000E+00  0.0000E+00  0.0000E+00
     -9.003  0.0000E+00  0.0000E+00  0.0000E+00
     -8.849  0.0000E+00  0.0000E+00  0.0000E+00
     -8.694  0.0000E+00  0.0000E+00  0.0000E+00
     -8.540  0.0000E+00  0.0000E+00  0.0000E+00
     -8.385  0.0000E+00  0.0000E+00  0.0000E+00
     -8.230  0.0000E+00  0.0000E+00  0.0000E+00
     -8.076  0.0000E+00  0.0000E+00  0.0000E+00
     -7.921  0.0000E+00  0.0000E+00  0.0000E+00
     -7.767  0.0000E+00  0.0000E+00  0.0000E+00
     -7.612  0.0000E+00  0.0000E+00  0.0000E+00
     -7.457  0.0000E+00  0.0000E+00  0.0000E+00
     -7.303  0.0000E+00  0.0000E+00  0.0000E+00
     -7.148  0.0000E+00  0.0000E+00  0.0000E+00
     -6.994  0.0000E+00  0.0000E+00  0.0000E+00
     -6.839  0.0000E+00  0.0000E+00  0.0000E+00
     -6.684  0.0000E+00  0.0000E+00  0.0000E+00
     -6.530  0.0000E+00  0.0000E+00  0.0000E+00
     -6.375  0.0000E+00  0.0000E+00  0.0000E+00
     -6.221  0.0000E+00  0.0000E+00  0.0000E+00
     -6.066  0.0000E+00  0.0000E+00  0.0000E+00
     -5.911  0.0000E+00  0.0000E+00  0.0000E+00
     -5.757  0.0000E+00  0.0000E+00  0.0000E+00
     -5.602  0.0000E+00  0.0000E+00  0.0000E+00
     -5.447  0.0000E+00  0.0000E+00  0.0000E+00
     -5.293  0.0000E+00  0.0000E+00  0.0000E+00
     -5.138  0.0000E+00  0.0000E+00  0.0000E+00
     -4.984  0.3359E-10  0.2010E-15  0.6089E-11
     -4.829  0.3981E-03  0.4581E-04  0.7225E-04
     -4.674  0.4604E-02  0.9455E-03  0.8848E-03
     -4.520  0.4965E-02  0.1383E-02  0.1021E-02
     -4.365  0.4449E-02  0.2922E-02  0.1072E-02
     -4.211  0.1267E-01  0.6718E-02  0.3356E-02
     -4.056  0.5259E-02  0.2671E-02  0.1413E-02
     -3.901  0.5610E-02  0.9049E-02  0.3724E-02
     -3.747  0.3069E-02  0.8715E-02  0.1185E-01
     -3.592  0.8328E-02  0.8458E-02  0.1690E-01
     -3.438  0.4713E-02  0.1550E-01  0.2665E-02
     -3.283  0.6310E-02  0.1227E-01  0.8893E-02
     -3.128  0.2358E-03  0.3958E-02  0.4533E-02
     -2.974  0.2638E-02  0.3535E-02  0.2363E-02
     -2.819  0.7141E-02  0.1323E-01  0.4578E-02
     -2.665  0.1432E-02  0.8001E-02  0.8692E-02
     -2.510  0.1703E-02  0.4998E-02  0.6488E-02
     -2.355  0.3599E-02  0.7692E-02  0.2413E-02
     -2.201  0.1273E-03  0.1971E-02  0.9407E-02
     -2.046  0.1073E-03  0.1743E-02  0.3145E-02
     -1.892  0.1642E-03  0.1718E-02  0.1008E-03
     -1.737  0.0000E+00  0.0000E+00  0.0000E+00
     -1.582  0.0000E+00  0.0000E+00  0.0000E+00
     -1.428  0.0000E+00  0.0000E+00  0.0000E+00
     -1.273  0.0000E+00  0.0000E+00  0.0000E+00
     -1.119  0.0000E+00  0.0000E+00  0.0000E+00
     -0.964  0.3167E-22  0.3946E-03  0.1554E-05
     -0.809  0.5922E-21  0.1716E-02  0.3653E-02
     -0.655  0.1779E-13  0.1042E-02  0.4118E-02
     -0.500  0.2619E-20  0.2587E-03  0.1384E-02
     -0.345  0.7790E-07  0.1677E-04  0.7678E-03
     -0.191  0.6703E-02  0.5482E-02  0.1364E-01
     -0.036  0.2003E-01  0.4987E-02  0.2590E-01
      0.118  0.1720E-01  0.4978E-02  0.1938E-01
      0.273  0.3757E-01  0.9293E-02  0.2747E-01
      0.428  0.2195E-01  0.1048E-01  0.1686E-01
      0.582  0.3113E-01  0.1178E-01  0.2288E-01
      0.737  0.3360E-01  0.2834E-01  0.3055E-01
      0.891  0.2201E-01  0.1404E-01  0.3374E-01
      1.046  0.1313E-01  0.4194E-01  0.2353E-01
      1.201  0.4722E-02  0.2478E-01  0.5605E-01
      1.355  0.4697E-04  0.5629E-02  0.1898E-02
      1.510  0.9057E-03  0.3533E-01  0.6533E-01
      1.664  0.1069E-02  0.2471E-01  0.5728E-01
      1.819  0.7672E-03  0.1831E-01  0.5123E-01
      1.974  0.2999E-02  0.7047E-02  0.4229E-01
      2.128  0.4107E-02  0.7284E-02  0.4681E-01
      2.283  0.6069E-02  0.2050E-01  0.5140E-01
      2.437  0.2750E-02  0.2051E-01  0.5948E-01
      2.592  0.1518E-02  0.2042E-01  0.7851E-01
      2.747  0.1960E-02  0.1150E-01  0.4975E-01
      2.901  0.1306E-02  0.4184E-02  0.3097E-01
      3.056  0.1187E-02  0.3542E-02  0.2233E-01
      3.210  0.4750E-03  0.8193E-02  0.4430E-01
      3.365  0.5058E-02  0.1324E-01  0.6879E-01
      3.520  0.4890E-02  0.1762E-01  0.1071E+00
      3.674  0.4925E-03  0.1014E-02  0.1922E-01
      3.829  0.5853E-02  0.1763E-01  0.8125E-01
      3.983  0.1798E-02  0.5080E-02  0.6951E-01
      4.138  0.4191E-03  0.7139E-02  0.4935E-01
      4.293  0.4049E-04  0.3396E-02  0.3049E-01
      4.447  0.4174E-02  0.1671E-01  0.9500E-01
      4.602  0.2581E-02  0.2505E-02  0.2241E-01
      4.757  0.1780E-02  0.1023E-02  0.4713E-01
      4.911  0.2454E-02  0.3227E-02  0.5759E-01
      5.066  0.4999E-02  0.5312E-02  0.8370E-01
      5.220  0.1600E-02  0.8531E-03  0.2479E-01
      5.375  0.0000E+00  0.0000E+00  0.0000E+00
      5.530  0.0000E+00  0.0000E+00  0.0000E+00
      5.684  0.0000E+00  0.0000E+00  0.0000E+00
      5.839  0.0000E+00  0.0000E+00  0.0000E+00
      5.993  0.0000E+00  0.0000E+00  0.0000E+00
      6.148  0.0000E+00  0.0000E+00  0.0000E+00
      6.303  0.0000E+00  0.0000E+00  0.0000E+00
      6.457  0.0000E+00  0.0000E+00  0.0000E+00
      6.612  0.0000E+00  0.0000E+00  0.0000E+00
      6.766  0.0000E+00  0.0000E+00  0.0000E+00
      6.921  0.0000E+00  0.0000E+00  0.0000E+00
      7.076  0.0000E+00  0.0000E+00  0.0000E+00
      7.230  0.0000E+00  0.0000E+00  0.0000E+00
      7.385  0.0000E+00  0.0000E+00  0.0000E+00
      7.38483912    -38.99710155  301      2.68939780      1.00000000
    -38.997  0.0000E+00  0.0000E+00  0.0000E+00
    -38.842  0.0000E+00  0.0000E+00  0.0000E+00
    -38.688  0.0000E+00  0.0000E+00  0.0000E+00
    -38.533  0.0000E+00  0.0000E+00  0.0000E+00
    -38.379  0.0000E+00  0.0000E+00  0.0000E+00
    -38.224  0.0000E+00  0.0000E+00  0.0000E+00
    -38.069  0.0000E+00  0.0000E+00  0.0000E+00
    -37.915  0.0000E+00  0.0000E+00  0.0000E+00
    -37.760  0.0000E+00  0.0000E+00  0.0000E+00
    -37.606  0.0000E+00  0.0000E+00  0.0000E+00
    -37.451  0.0000E+00  0.0000E+00  0.0000E+00
    -37.296  0.0000E+00  0.0000E+00  0.0000E+00
    -37.142  0.0000E+00  0.0000E+00  0.0000E+00
    -36.987  0.0000E+00  0.0000E+00  0.0000E+00
    -36.833  0.1274E+02  0.8270E-05  0.1635E-04
    -36.678  0.0000E+00  0.0000E+00  0.0000E+00
    -36.523  0.0000E+00  0.0000E+00  0.0000E+00
    -36.369  0.0000E+00  0.0000E+00  0.0000E+00
    -36.214  0.0000E+00  0.0000E+00  0.0000E+00
    -36.060  0.0000E+00  0.0000E+00  0.0000E+00
    -35.905  0.0000E+00  0.0000E+00  0.0000E+00
    -35.750  0.0000E+00  0.0000E+00  0.0000E+00
    -35.596  0.0000E+00  0.0000E+00  0.0000E+00
    -35.441  0.0000E+00  0.0000E+00  0.0000E+00
    -35.287  0.0000E+00  0.0000E+00  0.0000E+00
    -35.132  0.0000E+00  0.0000E+00  0.0000E+00
    -34.977  0.0000E+00  0.0000E+00  0.0000E+00
    -34.823  0.0000E+00  0.0000E+00  0.0000E+00
    -34.668  0.0000E+00  0.0000E+00  0.0000E+00
    -34.514  0.0000E+00  0.0000E+00  0.0000E+00
    -34.359  0.0000E+00  0.0000E+00  0.0000E+00
    -34.204  0.0000E+00  0.0000E+00  0.0000E+00
    -34.050  0.0000E+00  0.0000E+00  0.0000E+00
    -33.895  0.0000E+00  0.0000E+00  0.0000E+00
    -33.740  0.0000E+00  0.0000E+00  0.0000E+00
    -33.586  0.0000E+00  0.0000E+00  0.0000E+00
    -33.431  0.0000E+00  0.0000E+00  0.0000E+00
    -33.277  0.0000E+00  0.0000E+00  0.0000E+00
    -33.122  0.0000E+00  0.0000E+00  0.0000E+00
    -32.967  0.0000E+00  0.0000E+00  0.0000E+00
    -32.813  0.0000E+00  0.0000E+00  0.0000E+00
    -32.658  0.0000E+00  0.0000E+00  0.0000E+00
    -32.504  0.0000E+00  0.0000E+00  0.0000E+00
    -32.349  0.0000E+00  0.0000E+00  0.0000E+00
    -32.194  0.0000E+00  0.0000E+00  0.0000E+00
    -32.040  0.0000E+00  0.0000E+00  0.0000E+00
    -31.885  0.0000E+00  0.0000E+00  0.0000E+00
    -31.731  0.0000E+00  0.0000E+00  0.0000E+00
    -31.576  0.0000E+00  0.0000E+00  0.0000E+00
    -31.421  0.0000E+00  0.0000E+00  0.0000E+00
    -31.267  0.0000E+00  0.0000E+00  0.0000E+00
    -31.112  0.0000E+00  0.0000E+00  0.0000E+00
    -30.958  0.0000E+00  0.0000E+00  0.0000E+00
    -30.803  0.0000E+00  0.0000E+00  0.0000E+00
    -30.648  0.0000E+00  0.0000E+00  0.0000E+00
    -30.494  0.0000E+00  0.0000E+00  0.0000E+00
    -30.339  0.0000E+00  0.0000E+00  0.0000E+00
    -30.185  0.0000E+00  0.0000E+00  0.0000E+00
    -30.030  0.0000E+00  0.0000E+00  0.0000E+00
    -29.875  0.0000E+00  0.0000E+00  0.0000E+00
    -29.721  0.0000E+00  0.0000E+00  0.0000E+00
    -29.566  0.0000E+00  0.0000E+00  0.0000E+00
    -29.412  0.0000E+00  0.0000E+00  0.0000E+00
    -29.257  0.0000E+00  0.0000E+00  0.0000E+00
    -29.102  0.0000E+00  0.0000E+00  0.0000E+00
    -28.948  0.0000E+00  0.0000E+00  0.0000E+00
    -28.793  0.0000E+00  0.0000E+00  0.0000E+00
    -28.638  0.0000E+00  0.0000E+00  0.0000E+00
    -28.484  0.0000E+00  0.0000E+00  0.0000E+00
    -28.329  0.0000E+00  0.0000E+00  0.0000E+00
    -28.175  0.0000E+00  0.0000E+00  0.0000E+00
    -28.020  0.0000E+00  0.0000E+00  0.0000E+00
    -27.865  0.0000E+00  0.0000E+00  0.0000E+00
    -27.711  0.0000E+00  0.0000E+00  0.0000E+00
    -27.556  0.0000E+00  0.0000E+00  0.0000E+00
    -27.402  0.0000E+00  0.0000E+00  0.0000E+00
    -27.247  0.0000E+00  0.0000E+00  0.0000E+00
    -27.092  0.0000E+00  0.0000E+00  0.0000E+00
    -26.938  0.0000E+00  0.0000E+00  0.0000E+00
    -26.783  0.0000E+00  0.0000E+00  0.0000E+00
    -26.629  0.0000E+00  0.0000E+00  0.0000E+00
    -26.474  0.0000E+00  0.0000E+00  0.0000E+00
    -26.319  0.0000E+00  0.0000E+00  0.0000E+00
    -26.165  0.0000E+00  0.0000E+00  0.0000E+00
    -26.010  0.0000E+00  0.0000E+00  0.0000E+00
    -25.856  0.0000E+00  0.0000E+00  0.0000E+00
    -25.701  0.0000E+00  0.0000E+00  0.0000E+00
    -25.546  0.0000E+00  0.0000E+00  0.0000E+00
    -25.392  0.0000E+00  0.0000E+00  0.0000E+00
    -25.237  0.0000E+00  0.0000E+00  0.0000E+00