   8   8   1   0
  0.1457861E+02  0.3499570E-09  0.4642220E-09  0.7179030E-09  0.1000000E-15
  1.000000000000000E-004
  CAR 
 DFT routine                             
     11.66133108    -38.11228045  301      5.02488473      1.00000000
    -38.112  0.0000E+00  0.0000E+00
    -37.946  0.0000E+00  0.0000E+00
    -37.780  0.0000E+00  0.0000E+00
    -37.615  0.0000E+00  0.0000E+00
    -37.449  0.0000E+00  0.0000E+00
    -37.283  0.0000E+00  0.0000E+00
    -37.117  0.0000E+00  0.0000E+00
    -36.951  0.0000E+00  0.0000E+00
    -36.785  0.0000E+00  0.0000E+00
    -36.619  0.0000E+00  0.0000E+00
    -36.453  0.0000E+00  0.0000E+00
    -36.287  0.0000E+00  0.0000E+00
    -36.121  0.0000E+00  0.0000E+00
    -35.955  0.0000E+00  0.0000E+00
    -35.790  0.8036E+01  0.1333E+01
    -35.624  0.0000E+00  0.1333E+01
    -35.458  0.0000E+00  0.1333E+01
    -35.292  0.0000E+00  0.1333E+01
    -35.126  0.0000E+00  0.1333E+01
    -34.960  0.0000E+00  0.1333E+01
    -34.794  0.0000E+00  0.1333E+01
    -34.628  0.0000E+00  0.1333E+01
    -34.462  0.0000E+00  0.1333E+01
    -34.296  0.0000E+00  0.1333E+01
    -34.130  0.0000E+00  0.1333E+01
    -33.964  0.0000E+00  0.1333E+01
    -33.799  0.0000E+00  0.1333E+01
    -33.633  0.0000E+00  0.1333E+01
    -33.467  0.0000E+00  0.1333E+01
    -33.301  0.0000E+00  0.1333E+01
    -33.135  0.0000E+00  0.1333E+01
    -32.969  0.0000E+00  0.1333E+01
    -32.803  0.0000E+00  0.1333E+01
    -32.637  0.0000E+00  0.1333E+01
    -32.471  0.0000E+00  0.1333E+01
    -32.305  0.0000E+00  0.1333E+01
    -32.139  0.0000E+00  0.1333E+01
    -31.974  0.0000E+00  0.1333E+01
    -31.808  0.0000E+00  0.1333E+01
    -31.642  0.0000E+00  0.1333E+01
    -31.476  0.0000E+00  0.1333E+01
    -31.310  0.0000E+00  0.1333E+01
    -31.144  0.0000E+00  0.1333E+01
    -30.978  0.0000E+00  0.1333E+01
    -30.812  0.0000E+00  0.1333E+01
    -30.646  0.0000E+00  0.1333E+01
    -30.480  0.0000E+00  0.1333E+01
    -30.314  0.0000E+00  0.1333E+01
    -30.149  0.0000E+00  0.1333E+01
    -29.983  0.0000E+00  0.1333E+01
    -29.817  0.0000E+00  0.1333E+01
    -29.651  0.0000E+00  0.1333E+01
    -29.485  0.0000E+00  0.1333E+01
    -29.319  0.0000E+00  0.1333E+01
    -29.153  0.0000E+00  0.1333E+01
    -28.987  0.0000E+00  0.1333E+01
    -28.821  0.0000E+00  0.1333E+01
    -28.655  0.0000E+00  0.1333E+01
    -28.489  0.0000E+00  0.1333E+01
    -28.323  0.0000E+00  0.1333E+01
    -28.158  0.0000E+00  0.1333E+01
    -27.992  0.0000E+00  0.1333E+01
    -27.826  0.0000E+00  0.1333E+01
    -27.660  0.0000E+00  0.1333E+01
    -27.494  0.0000E+00  0.1333E+01
    -27.328  0.0000E+00  0.1333E+01
    -27.162  0.0000E+00  0.1333E+01
    -26.996  0.0000E+00  0.1333E+01
    -26.830  0.0000E+00  0.1333E+01
    -26.664  0.0000E+00  0.1333E+01
    -26.498  0.0000E+00  0.1333E+01
    -26.333  0.0000E+00  0.1333E+01
    -26.167  0.0000E+00  0.1333E+01
    -26.001  0.0000E+00  0.1333E+01
    -25.835  0.0000E+00  0.1333E+01
    -25.669  0.0000E+00  0.1333E+01
    -25.503  0.0000E+00  0.1333E+01
    -25.337  0.0000E+00  0.1333E+01
    -25.171  0.0000E+00  0.1333E+01
    -25.005  0.0000E+00  0.1333E+01
    -24.839  0.0000E+00  0.1333E+01
    -24.673  0.0000E+00  0.1333E+01
    -24.507  0.0000E+00  0.1333E+01
    -24.342  0.0000E+00  0.1333E+01
    -24.176  0.0000E+00  0.1333E+01
    -24.010  0.0000E+00  0.1333E+01
    -23.844  0.0000E+00  0.1333E+01
    -23.678  0.0000E+00  0.1333E+01
    -23.512  0.0000E+00  0.1333E+01
    -23.346  0.0000E+00  0.1333E+01
    -23.180  0.0000E+00  0.1333E+01
    -23.014  0.0000E+00  0.1333E+01
    -22.848  0.0000E+00  0.1333E+01
    -22.682  0.0000E+00  0.1333E+01
    -22.517  0.0000E+00  0.1333E+01
    -22.351  0.0000E+00  0.1333E+01
    -22.185  0.0000E+00  0.1333E+01
    -22.019  0.0000E+00  0.1333E+01
    -21.853  0.0000E+00  0.1333E+01
    -21.687  0.0000E+00  0.1333E+01
    -21.521  0.0000E+00  0.1333E+01
    -21.355  0.0000E+00  0.1333E+01
    -21.189  0.0000E+00  0.1333E+01
    -21.023  0.0000E+00  0.1333E+01
    -20.857  0.0000E+00  0.1333E+01
    -20.692  0.0000E+00  0.1333E+01
    -20.526  0.0000E+00  0.1333E+01
    -20.360  0.0000E+00  0.1333E+01
    -20.194  0.0000E+00  0.1333E+01
    -20.028  0.0000E+00  0.1333E+01
    -19.862  0.0000E+00  0.1333E+01
    -19.696  0.0000E+00  0.1333E+01
    -19.530  0.0000E+00  0.1333E+01
    -19.364  0.0000E+00  0.1333E+01
    -19.198  0.0000E+00  0.1333E+01
    -19.032  0.0000E+00  0.1333E+01
    -18.866  0.0000E+00  0.1333E+01
    -18.701  0.0000E+00  0.1333E+01
    -18.535  0.0000E+00  0.1333E+01
    -18.369  0.0000E+00  0.1333E+01
    -18.203  0.0000E+00  0.1333E+01
    -18.037  0.0000E+00  0.1333E+01
    -17.871  0.0000E+00  0.1333E+01
    -17.705  0.0000E+00  0.1333E+01
    -17.539  0.0000E+00  0.1333E+01
    -17.373  0.0000E+00  0.1333E+01
    -17.207  0.0000E+00  0.1333E+01
    -17.041  0.1449E+01  0.1574E+01
    -16.876  0.7311E+01  0.3577E+01
    -16.710  0.5581E+00  0.5333E+01
    -16.544  0.0000E+00  0.5333E+01
    -16.378  0.0000E+00  0.5333E+01
    -16.212  0.0000E+00  0.5333E+01
    -16.046  0.0000E+00  0.5333E+01
    -15.880  0.0000E+00  0.5333E+01
    -15.714  0.0000E+00  0.5333E+01
    -15.548  0.0000E+00  0.5333E+01
    -15.382  0.0000E+00  0.5333E+01
    -15.216  0.0000E+00  0.5333E+01
    -15.051  0.0000E+00  0.5333E+01
    -14.885  0.0000E+00  0.5333E+01
    -14.719  0.0000E+00  0.5333E+01
    -14.553  0.0000E+00  0.5333E+01
    -14.387  0.0000E+00  0.5333E+01
    -14.221  0.0000E+00  0.5333E+01
    -14.055  0.0000E+00  0.5333E+01
    -13.889  0.0000E+00  0.5333E+01
    -13.723  0.0000E+00  0.5333E+01
    -13.557  0.0000E+00  0.5333E+01
    -13.391  0.0000E+00  0.5333E+01
    -13.225  0.0000E+00  0.5333E+01
    -13.060  0.0000E+00  0.5333E+01
    -12.894  0.0000E+00  0.5333E+01
    -12.728  0.0000E+00  0.5333E+01
    -12.562  0.0000E+00  0.5333E+01
    -12.396  0.0000E+00  0.5333E+01
    -12.230  0.0000E+00  0.5333E+01
    -12.064  0.0000E+00  0.5333E+01
    -11.898  0.0000E+00  0.5333E+01
    -11.732  0.0000E+00  0.5333E+01
    -11.566  0.0000E+00  0.5333E+01
    -11.400  0.0000E+00  0.5333E+01
    -11.235  0.0000E+00  0.5333E+01
    -11.069  0.0000E+00  0.5333E+01
    -10.903  0.0000E+00  0.5333E+01
    -10.737  0.0000E+00  0.5333E+01
    -10.571  0.0000E+00  0.5333E+01
    -10.405  0.0000E+00  0.5333E+01
    -10.239  0.0000E+00  0.5333E+01
    -10.073  0.0000E+00  0.5333E+01
     -9.907  0.0000E+00  0.5333E+01
     -9.741  0.0000E+00  0.5333E+01
     -9.575  0.0000E+00  0.5333E+01
     -9.409  0.0000E+00  0.5333E+01
     -9.244  0.0000E+00  0.5333E+01
     -9.078  0.0000E+00  0.5333E+01
     -8.912  0.0000E+00  0.5333E+01
     -8.746  0.0000E+00  0.5333E+01
     -8.580  0.0000E+00  0.5333E+01
     -8.414  0.5599E-01  0.5343E+01
     -8.248  0.3030E+00  0.5430E+01
     -8.082  0.3721E+00  0.5525E+01
     -7.916  0.4467E+00  0.5679E+01
     -7.750  0.6766E+00  0.5872E+01
     -7.584  0.2631E+00  0.5994E+01
     -7.419  0.6075E+00  0.6206E+01
     -7.253  0.2799E+00  0.6306E+01
     -7.087  0.3514E+00  0.6478E+01
     -6.921  0.4444E+00  0.6666E+01
     -6.755  0.0000E+00  0.6667E+01
     -6.589  0.0000E+00  0.6667E+01
     -6.423  0.0000E+00  0.6667E+01
     -6.257  0.0000E+00  0.6667E+01
     -6.091  0.0000E+00  0.6667E+01
     -5.925  0.0000E+00  0.6667E+01
     -5.759  0.0000E+00  0.6667E+01
     -5.594  0.0000E+00  0.6667E+01
     -5.428  0.0000E+00  0.6667E+01
     -5.262  0.0000E+00  0.6667E+01
     -5.096  0.0000E+00  0.6667E+01
     -4.930  0.1885E-12  0.6667E+01
     -4.764  0.2309E+00  0.6742E+01
     -4.598  0.0000E+00  0.6778E+01
     -4.432  0.4465E+00  0.6852E+01
     -4.266  0.0000E+00  0.6852E+01
     -4.100  0.4623E+00  0.6929E+01
     -3.934  0.1991E+00  0.7058E+01
     -3.768  0.2232E+00  0.7148E+01
     -3.603  0.1634E+00  0.7175E+01
     -3.437  0.1299E+00  0.7244E+01
     -3.271  0.0000E+00  0.7259E+01
     -3.105  0.0000E+00  0.7259E+01
     -2.939  0.6664E+00  0.7370E+01
     -2.773  0.2117E+00  0.7480E+01
     -2.607  0.1116E+00  0.7556E+01
     -2.441  0.0000E+00  0.7556E+01
     -2.275  0.0000E+00  0.7556E+01
     -2.109  0.0000E+00  0.7556E+01
     -1.943  0.6236E+00  0.7659E+01
     -1.778  0.3551E+00  0.7864E+01
     -1.612  0.1835E+00  0.7898E+01
     -1.446  0.1361E+00  0.7970E+01
     -1.280  0.2597E+00  0.8074E+01
     -1.114  0.2461E+00  0.8164E+01
     -0.948  0.1861E+00  0.8216E+01
     -0.782  0.1272E-02  0.8241E+01
     -0.616  0.1602E+00  0.8298E+01
     -0.450  0.2283E+00  0.8350E+01
     -0.284  0.4824E+00  0.8503E+01
     -0.118  0.4097E+00  0.8596E+01
      0.047  0.5137E+00  0.8761E+01
      0.213  0.4283E+00  0.8904E+01
      0.379  0.5895E+00  0.9101E+01
      0.545  0.3838E+00  0.9301E+01
      0.711  0.7499E+00  0.9504E+01
      0.877  0.3509E+00  0.9660E+01
      1.043  0.6306E+00  0.9895E+01
      1.209  0.3979E+00  0.1005E+02
      1.375  0.5147E+00  0.1031E+02
      1.541  0.5572E+00  0.1054E+02
      1.707  0.5870E+00  0.1071E+02
      1.873  0.4520E+00  0.1080E+02
      2.038  0.6983E+00  0.1107E+02
      2.204  0.1053E+01  0.1135E+02
      2.370  0.5740E+00  0.1151E+02
      2.536  0.6782E+00  0.1171E+02
      2.702  0.2599E+00  0.1178E+02
      2.868  0.5712E+00  0.1197E+02
      3.034  0.1957E+00  0.1202E+02
      3.200  0.2122E+00  0.1208E+02
      3.366  0.5370E+00  0.1227E+02
      3.532  0.3723E+00  0.1240E+02
      3.698  0.4692E+00  0.1262E+02
      3.863  0.4686E+00  0.1280E+02
      4.029  0.1245E+01  0.1316E+02
      4.195  0.2753E+01  0.1396E+02
      4.361  0.1689E+01  0.1453E+02
      4.527  0.1474E+01  0.1509E+02
      4.693  0.2700E+01  0.1585E+02
      4.859  0.2206E+01  0.1659E+02
      5.025  0.1971E+01  0.1733E+02
      5.191  0.6648E+00  0.1753E+02
      5.357  0.2242E+00  0.1767E+02
      5.523  0.1205E+01  0.1798E+02
      5.688  0.1121E+01  0.1835E+02
      5.854  0.3780E+00  0.1858E+02
      6.020  0.4805E+00  0.1879E+02
      6.186  0.8873E+00  0.1910E+02
      6.352  0.7065E+00  0.1934E+02
      6.518  0.3032E+00  0.1942E+02
      6.684  0.8137E+00  0.1968E+02
      6.850  0.7720E+00  0.1994E+02
      7.016  0.9227E+00  0.2023E+02
      7.182  0.7288E+00  0.2048E+02
      7.348  0.8317E+00  0.2072E+02
      7.514  0.9378E+00  0.2115E+02
      7.679  0.9759E+00  0.2158E+02
      7.845  0.6070E+00  0.2186E+02
      8.011  0.6786E+00  0.2214E+02
      8.177  0.6219E+00  0.2248E+02
      8.343  0.8791E+00  0.2277E+02
      8.509  0.6147E+00  0.2293E+02
      8.675  0.6660E+00  0.2318E+02
      8.841  0.1301E+00  0.2325E+02
      9.007  0.1860E+00  0.2331E+02
      9.173  0.9301E-01  0.2332E+02
      9.339  0.0000E+00  0.2333E+02
      9.504  0.0000E+00  0.2333E+02
      9.670  0.0000E+00  0.2333E+02
      9.836  0.0000E+00  0.2333E+02
     10.002  0.0000E+00  0.2333E+02
     10.168  0.0000E+00  0.2333E+02
     10.334  0.0000E+00  0.2333E+02
     10.500  0.0000E+00  0.2333E+02
     10.666  0.0000E+00  0.2333E+02
     10.832  0.0000E+00  0.2333E+02
     10.998  0.0000E+00  0.2333E+02
     11.164  0.0000E+00  0.2333E+02
     11.330  0.0000E+00  0.2333E+02
     11.495  0.0000E+00  0.2333E+02
     11.661  0.0000E+00  0.2333E+02
     11.66133108    -38.11228045  301      5.02488473      1.00000000
    -38.112  0.0000E+00  0.0000E+00  0.0000E+00
    -37.946  0.0000E+00  0.0000E+00  0.0000E+00
    -37.780  0.0000E+00  0.0000E+00  0.0000E+00
    -37.615  0.0000E+00  0.0000E+00  0.0000E+00
    -37.449  0.0000E+00  0.0000E+00  0.0000E+00
    -37.283  0.0000E+00  0.0000E+00  0.0000E+00
    -37.117  0.0000E+00  0.0000E+00  0.0000E+00
    -36.951  0.0000E+00  0.0000E+00  0.0000E+00
    -36.785  0.0000E+00  0.0000E+00  0.0000E+00
    -36.619  0.0000E+00  0.0000E+00  0.0000E+00
    -36.453  0.0000E+00  0.0000E+00  0.0000E+00
    -36.287  0.0000E+00  0.0000E+00  0.0000E+00
    -36.121  0.0000E+00  0.0000E+00  0.0000E+00
    -35.955  0.0000E+00  0.0000E+00  0.0000E+00
    -35.790  0.1188E+02  0.2675E-05  0.6371E-04
    -35.624  0.0000E+00  0.0000E+00  0.0000E+00
    -35.458  0.0000E+00  0.0000E+00  0.0000E+00
    -35.292  0.0000E+00  0.0000E+00  0.0000E+00
    -35.126  0.0000E+00  0.0000E+00  0.0000E+00
    -34.960  0.0000E+00  0.0000E+00  0.0000E+00
    -34.794  0.0000E+00  0.0000E+00  0.0000E+00
    -34.628  0.0000E+00  0.0000E+00  0.0000E+00
    -34.462  0.0000E+00  0.0000E+00  0.0000E+00
    -34.296  0.0000E+00  0.0000E+00  0.0000E+00
    -34.130  0.0000E+00  0.0000E+00  0.0000E+00
    -33.964  0.0000E+00  0.0000E+00  0.0000E+00
    -33.799  0.0000E+00  0.0000E+00  0.0000E+00
    -33.633  0.0000E+00  0.0000E+00  0.0000E+00
    -33.467  0.0000E+00  0.0000E+00  0.0000E+00
    -33.301  0.0000E+00  0.0000E+00  0.0000E+00
    -33.135  0.0000E+00  0.0000E+00  0.0000E+00
    -32.969  0.0000E+00  0.0000E+00  0.0000E+00
    -32.803  0.0000E+00  0.0000E+00  0.0000E+00
    -32.637  0.0000E+00  0.0000E+00  0.0000E+00
    -32.471  0.0000E+00  0.0000E+00  0.0000E+00
    -32.305  0.0000E+00  0.0000E+00  0.0000E+00
    -32.139  0.0000E+00  0.0000E+00  0.0000E+00
    -31.974  0.0000E+00  0.0000E+00  0.0000E+00
    -31.808  0.0000E+00  0.0000E+00  0.0000E+00
    -31.642  0.0000E+00  0.0000E+00  0.0000E+00
    -31.476  0.0000E+00  0.0000E+00  0.0000E+00
    -31.310  0.0000E+00  0.0000E+00  0.0000E+00
    -31.144  0.0000E+00  0.0000E+00  0.0000E+00
    -30.978  0.0000E+00  0.0000E+00  0.0000E+00
    -30.812  0.0000E+00  0.0000E+00  0.0000E+00
    -30.646  0.0000E+00  0.0000E+00  0.0000E+00
    -30.480  0.0000E+00  0.0000E+00  0.0000E+00
    -30.314  0.0000E+00  0.0000E+00  0.0000E+00
    -30.149  0.0000E+00  0.0000E+00  0.0000E+00
    -29.983  0.0000E+00  0.0000E+00  0.0000E+00
    -29.817  0.0000E+00  0.0000E+00  0.0000E+00
    -29.651  0.0000E+00  0.0000E+00  0.0000E+00
    -29.485  0.0000E+00  0.0000E+00  0.0000E+00
    -29.319  0.0000E+00  0.0000E+00  0.0000E+00
    -29.153  0.0000E+00  0.0000E+00  0.0000E+00
    -28.987  0.0000E+00  0.0000E+00  0.0000E+00
    -28.821  0.0000E+00  0.0000E+00  0.0000E+00
    -28.655  0.0000E+00  0.0000E+00  0.0000E+00
    -28.489  0.0000E+00  0.0000E+00  0.0000E+00
    -28.323  0.0000E+00  0.0000E+00  0.0000E+00
    -28.158  0.0000E+00  0.0000E+00  0.0000E+00
    -27.992  0.0000E+00  0.0000E+00  0.0000E+00
    -27.826  0.0000E+00  0.0000E+00  0.0000E+00
    -27.660  0.0000E+00  0.0000E+00  0.0000E+00
    -27.494  0.0000E+00  0.0000E+00  0.0000E+00
    -27.328  0.0000E+00  0.0000E+00  0.0000E+00
    -27.162  0.0000E+00  0.0000E+00  0.0000E+00
    -26.996  0.0000E+00  0.0000E+00  0.0000E+00
    -26.830  0.0000E+00  0.0000E+00  0.0000E+00
    -26.664  0.0000E+00  0.0000E+00  0.0000E+00
    -26.498  0.0000E+00  0.0000E+00  0.0000E+00
    -26.333  0.0000E+00  0.0000E+00  0.0000E+00
    -26.167  0.0000E+00  0.0000E+00  0.0000E+00
    -26.001  0.0000E+00  0.0000E+00  0.0000E+00
    -25.835  0.0000E+00  0.0000E+00  0.0000E+00
    -25.669  0.0000E+00  0.0000E+00  0.0000E+00
    -25.503  0.0000E+00  0.0000E+00  0.0000E+00
    -25.337  0.0000E+00  0.0000E+00  0.0000E+00
    -25.171  0.0000E+00  0.0000E+00  0.0000E+00
    -25.005  0.0000E+00  0.0000E+00  0.0000E+00
    -24.839  0.0000E+00  0.0000E+00  0.0000E+00
    -24.673  0.0000E+00  0.0000E+00  0.0000E+00
    -24.507  0.0000E+00  0.0000E+00  0.0000E+00
    -24.342  0.0000E+00  0.0000E+00  0.0000E+00
    -24.176  0.0000E+00  0.0000E+00  0.0000E+00
    -24.010  0.0000E+00  0.0000E+00  0.0000E+00
    -23.844  0.0000E+00  0.0000E+00  0.0000E+00
    -23.678  0.0000E+00  0.0000E+00  0.0000E+00
    -23.512  0.0000E+00  0.0000E+00  0.0000E+00
    -23.346  0.0000E+00  0.0000E+00  0.0000E+00
    -23.180  0.0000E+00  0.0000E+00  0.0000E+00
    -23.014  0.0000E+00  0.0000E+00  0.0000E+00
    -22.848  0.0000E+00  0.0000E+00  0.0000E+00
    -22.682  0.0000E+00  0.0000E+00  0.0000E+00
    -22.517  0.0000E+00  0.0000E+00  0.0000E+00
    -22.351  0.0000E+00  0.0000E+00  0.0000E+00
    -22.185  0.0000E+00  0.0000E+00  0.0000E+00
    -22.019  0.0000E+00  0.0000E+00  0.0000E+00
    -21.853  0.0000E+00  0.0000E+00  0.0000E+00
    -21.687  0.0000E+00  0.0000E+00  0.0000E+00
    -21.521  0.0000E+00  0.0000E+00  0.0000E+00
    -21.355  0.0000E+00  0.0000E+00  0.0000E+00
    -21.189  0.0000E+00  0.0000E+00  0.0000E+00
    -21.023  0.0000E+00  0.0000E+00  0.0000E+00
    -20.857  0.0000E+00  0.0000E+00  0.0000E+00
    -20.692  0.0000E+00  0.0000E+00  0.0000E+00
    -20.526  0.0000E+00  0.0000E+00  0.0000E+00
    -20.360  0.0000E+00  0.0000E+00  0.0000E+00
    -20.194  0.0000E+00  0.0000E+00  0.0000E+00
    -20.028  0.0000E+00  0.0000E+00  0.0000E+00
    -19.862  0.0000E+00  0.0000E+00  0.0000E+00
    -19.696  0.0000E+00  0.0000E+00  0.0000E+00
    -19.530  0.0000E+00  0.0000E+00  0.0000E+00
    -19.364  0.0000E+00  0.0000E+00  0.0000E+00
    -19.198  0.0000E+00  0.0000E+00  0.0000E+00
    -19.032  0.0000E+00  0.0000E+00  0.0000E+00
    -18.866  0.0000E+00  0.0000E+00  0.0000E+00
    -18.701  0.0000E+00  0.0000E+00  0.0000E+00
    -18.535  0.0000E+00  0.0000E+00  0.0000E+00
    -18.369  0.0000E+00  0.0000E+00  0.0000E+00
    -18.203  0.0000E+00  0.0000E+00  0.0000E+00
    -18.037  0.0000E+00  0.0000E+00  0.0000E+00
    -17.871  0.0000E+00  0.0000E+00  0.0000E+00
    -17.705  0.0000E+00  0.0000E+00  0.0000E+00
    -17.539  0.0000E+00  0.0000E+00  0.0000E+00
    -17.373  0.0000E+00  0.0000E+00  0.0000E+00
    -17.207  0.0000E+00  0.0000E+00  0.0000E+00
    -17.041  0.3387E-05  0.2070E+01  0.3906E-05
    -16.876  0.2799E-04  0.1048E+02  0.3858E-04
    -16.710  0.1307E-13  0.8078E+00  0.9051E-07
    -16.544  0.0000E+00  0.0000E+00  0.0000E+00
    -16.378  0.0000E+00  0.0000E+00  0.0000E+00
    -16.212  0.0000E+00  0.0000E+00  0.0000E+00
    -16.046  0.0000E+00  0.0000E+00  0.0000E+00
    -15.880  0.0000E+00  0.0000E+00  0.0000E+00
    -15.714  0.0000E+00  0.0000E+00  0.0000E+00
    -15.548  0.0000E+00  0.0000E+00  0.0000E+00
    -15.382  0.0000E+00  0.0000E+00  0.0000E+00
    -15.216  0.0000E+00  0.0000E+00  0.0000E+00
    -15.051  0.0000E+00  0.0000E+00  0.0000E+00
    -14.885  0.0000E+00  0.0000E+00  0.0000E+00
    -14.719  0.0000E+00  0.0000E+00  0.0000E+00
    -14.553  0.0000E+00  0.0000E+00  0.0000E+00
    -14.387  0.0000E+00  0.0000E+00  0.0000E+00
    -14.221  0.0000E+00  0.0000E+00  0.0000E+00
    -14.055  0.0000E+00  0.0000E+00  0.0000E+00
    -13.889  0.0000E+00  0.0000E+00  0.0000E+00
    -13.723  0.0000E+00  0.0000E+00  0.0000E+00
    -13.557  0.0000E+00  0.0000E+00  0.0000E+00
    -13.391  0.0000E+00  0.0000E+00  0.0000E+00
    -13.225  0.0000E+00  0.0000E+00  0.0000E+00
    -13.060  0.0000E+00  0.0000E+00  0.0000E+00
    -12.894  0.0000E+00  0.0000E+00  0.0000E+00
    -12.728  0.0000E+00  0.0000E+00  0.0000E+00
    -12.562  0.0000E+00  0.0000E+00  0.0000E+00
    -12.396  0.0000E+00  0.0000E+00  0.0000E+00
    -12.230  0.0000E+00  0.0000E+00  0.0000E+00
    -12.064  0.0000E+00  0.0000E+00  0.0000E+00
    -11.898  0.0000E+00  0.0000E+00  0.0000E+00
    -11.732  0.0000E+00  0.0000E+00  0.0000E+00
    -11.566  0.0000E+00  0.0000E+00  0.0000E+00
    -11.400  0.0000E+00  0.0000E+00  0.0000E+00
    -11.235  0.0000E+00  0.0000E+00  0.0000E+00
    -11.069  0.0000E+00  0.0000E+00  0.0000E+00
    -10.903  0.0000E+00  0.0000E+00  0.0000E+00
    -10.737  0.0000E+00  0.0000E+00  0.0000E+00
    -10.571  0.0000E+00  0.0000E+00  0.0000E+00
    -10.405  0.0000E+00  0.0000E+00  0.0000E+00
    -10.239  0.0000E+00  0.0000E+00  0.0000E+00
    -10.073  0.0000E+00  0.0000E+00  0.0000E+00
     -9.907  0.0000E+00  0.0000E+00  0.0000E+00
     -9.741  0.0000E+00  0.0000E+00  0.0000E+00
     -9.575  0.0000E+00  0.0000E+00  0.0000E+00
     -9.409  0.0000E+00  0.0000E+00  0.0000E+00
     -9.244  0.0000E+00  0.0000E+00  0.0000E+00
     -9.078  0.0000E+00  0.0000E+00  0.0000E+00
     -8.912  0.0000E+00  0.0000E+00  0.0000E+00
     -8.746  0.0000E+00  0.0000E+00  0.0000E+00
     -8.580  0.0000E+00  0.0000E+00  0.0000E+00
     -8.414  0.3397E-03  0.2149E-03  0.7957E-04
     -8.248  0.1207E-02  0.2913E-02  0.3572E-03
     -8.082  0.9109E-03  0.4749E-02  0.4508E-03
     -7.916  0.1000E-02  0.4843E-02  0.9183E-03
     -7.750  0.1076E-02  0.5262E-02  0.1850E-02
     -7.584  0.8540E-03  0.1936E-02  0.4744E-03
     -7.419  0.6721E-03  0.6611E-02  0.1409E-02
     -7.253  0.3661E-03  0.1528E-02  0.1225E-02
     -7.087  0.7787E-03  0.4095E-02  0.5414E-03
     -6.921  0.2217E-03  0.3565E-02  0.1359E-02
     -6.755  0.0000E+00  0.0000E+00  0.0000E+00
     -6.589  0.0000E+00  0.0000E+00  0.0000E+00
     -6.423  0.0000E+00  0.0000E+00  0.0000E+00
     -6.257  0.0000E+00  0.0000E+00  0.0000E+00
     -6.091  0.0000E+00  0.0000E+00  0.0000E+00
     -5.925  0.0000E+00  0.0000E+00  0.0000E+00
     -5.759  0.0000E+00  0.0000E+00  0.0000E+00
     -5.594  0.0000E+00  0.0000E+00  0.0000E+00
     -5.428  0.0000E+00  0.0000E+00  0.0000E+00
     -5.262  0.0000E+00  0.0000E+00  0.0000E+00
     -5.096  0.0000E+00  0.0000E+00  0.0000E+00
     -4.930  0.2997E-16  0.1126E-14  0.4582E-16
     -4.764  0.2070E-04  0.1001E-02  0.3022E-03
     -4.598  0.0000E+00  0.0000E+00  0.0000E+00
     -4.432  0.6633E-05  0.8755E-03  0.1030E-02
     -4.266  0.0000E+00  0.0000E+00  0.0000E+00
     -4.100  0.4803E-04  0.7107E-03  0.1040E-02
     -3.934  0.1135E-14  0.8526E-04  0.7048E-03
     -3.768  0.2730E-05  0.1779E-03  0.7225E-03
     -3.603  0.2919E-07  0.2017E-03  0.4641E-03
     -3.437  0.3285E-17  0.1929E-04  0.3957E-03
     -3.271  0.0000E+00  0.0000E+00  0.0000E+00
     -3.105  0.0000E+00  0.0000E+00  0.0000E+00
     -2.939  0.1617E-03  0.1570E-02  0.2167E-02
     -2.773  0.9366E-05  0.2066E-03  0.5922E-03
     -2.607  0.6867E-20  0.1722E-05  0.1367E-03
     -2.441  0.0000E+00  0.0000E+00  0.0000E+00
     -2.275  0.0000E+00  0.0000E+00  0.0000E+00
     -2.109  0.0000E+00  0.0000E+00  0.0000E+00
     -1.943  0.1207E-03  0.2589E-03  0.1444E-02
     -1.778  0.1258E-02  0.7366E-03  0.1869E-02
     -1.612  0.1415E-02  0.5527E-03  0.1053E-02
     -1.446  0.1257E-02  0.2519E-02  0.8545E-03
     -1.280  0.3900E-02  0.2722E-02  0.2881E-02
     -1.114  0.6924E-03  0.2991E-02  0.1239E-02
     -0.948  0.1583E-02  0.3213E-02  0.1634E-02
     -0.782  0.2673E-04  0.3965E-05  0.2332E-04
     -0.616  0.1908E-02  0.2511E-02  0.1571E-02
     -0.450  0.4645E-02  0.1992E-02  0.2855E-02
     -0.284  0.1174E-01  0.4266E-02  0.6508E-02
     -0.118  0.1005E-01  0.5390E-02  0.3982E-02
      0.047  0.6306E-02  0.1109E-01  0.5767E-02
      0.213  0.6795E-02  0.6584E-02  0.9188E-02
      0.379  0.9662E-02  0.1023E-01  0.1043E-01
      0.545  0.6686E-02  0.4528E-02  0.7540E-02
      0.711  0.1723E-01  0.1006E-01  0.1562E-01
      0.877  0.1427E-02  0.7490E-02  0.4666E-02
      1.043  0.2806E-02  0.7780E-02  0.1447E-01
      1.209  0.6523E-02  0.3785E-02  0.1455E-01
      1.375  0.4170E-02  0.5353E-02  0.1125E-01
      1.541  0.1530E-02  0.5354E-02  0.1093E-01
      1.707  0.1830E-02  0.6677E-02  0.1121E-01
      1.873  0.3504E-02  0.4848E-02  0.8648E-02
      2.038  0.2059E-02  0.4527E-02  0.1211E-01
      2.204  0.3824E-02  0.7618E-02  0.1357E-01
      2.370  0.2591E-02  0.4623E-02  0.6396E-02
      2.536  0.1706E-02  0.5727E-02  0.6522E-02
      2.702  0.1196E-02  0.6107E-02  0.5993E-02
      2.868  0.1517E-02  0.5670E-02  0.1303E-01
      3.034  0.9533E-03  0.3899E-02  0.5062E-02
      3.200  0.6948E-02  0.9315E-03  0.7748E-02
      3.366  0.4014E-02  0.3869E-02  0.1339E-01
      3.532  0.1187E-01  0.4448E-02  0.1944E-01
      3.698  0.5112E-02  0.3976E-02  0.2650E-01
      3.863  0.9415E-02  0.6851E-02  0.2490E-01
      4.029  0.1540E-01  0.1352E-01  0.4862E-01
      4.195  0.2382E-01  0.3581E-01  0.1695E+00
      4.361  0.1121E-01  0.1924E-01  0.6563E-01
      4.527  0.3908E-02  0.1203E-01  0.5370E-01
      4.693  0.1628E-02  0.1656E-01  0.8087E-01
      4.859  0.1693E-02  0.1141E-01  0.5950E-01
      5.025  0.1069E-02  0.4834E-02  0.4575E-01
      5.191  0.2699E-02  0.3883E-02  0.3508E-01
      5.357  0.4631E-03  0.6272E-03  0.1310E-01
      5.523  0.4636E-02  0.1141E-01  0.1145E+00
      5.688  0.8729E-02  0.6815E-02  0.1472E+00
      5.854  0.2529E-02  0.3671E-02  0.4915E-01
      6.020  0.7562E-02  0.6555E-02  0.9660E-01
      6.186  0.1182E-01  0.1513E-01  0.1436E+00
      6.352  0.8174E-02  0.7211E-02  0.1147E+00
      6.518  0.1427E-01  0.5074E-02  0.6971E-01
      6.684  0.1739E-01  0.8998E-02  0.1650E+00
      6.850  0.1402E-01  0.1290E-01  0.1398E+00
      7.016  0.2062E-01  0.1128E-01  0.2008E+00
      7.182  0.8187E-02  0.2007E-01  0.1693E+00
      7.348  0.9919E-02  0.1722E-01  0.2941E+00
      7.514  0.6823E-02  0.1778E-01  0.2556E+00
      7.679  0.1063E-01  0.1065E-01  0.2803E+00
      7.845  0.3115E-02  0.1003E-01  0.2161E+00
      8.011  0.5374E-02  0.1383E-01  0.2921E+00
      8.177  0.1317E-01  0.5737E-02  0.2561E+00
      8.343  0.1803E-01  0.1476E-01  0.3000E+00
      8.509  0.3767E-02  0.2862E-02  0.4294E+00
      8.675  0.1025E-01  0.2536E-02  0.3312E+00
      8.841  0.3364E-03  0.4248E-03  0.1001E+00
      9.007  0.6908E-03  0.2408E-02  0.1242E+00
      9.173  0.9543E-05  0.3812E-03  0.1086E+00
      9.339  0.0000E+00  0.0000E+00  0.0000E+00
      9.504  0.0000E+00  0.0000E+00  0.0000E+00
      9.670  0.0000E+00  0.0000E+00  0.0000E+00
      9.836  0.0000E+00  0.0000E+00  0.0000E+00
     10.002  0.0000E+00  0.0000E+00  0.0000E+00
     10.168  0.0000E+00  0.0000E+00  0.0000E+00
     10.334  0.0000E+00  0.0000E+00  0.0000E+00
     10.500  0.0000E+00  0.0000E+00  0.0000E+00
     10.666  0.0000E+00  0.0000E+00  0.0000E+00
     10.832  0.0000E+00  0.0000E+00  0.0000E+00
     10.998  0.0000E+00  0.0000E+00  0.0000E+00
     11.164  0.0000E+00  0.0000E+00  0.0000E+00
     11.330  0.0000E+00  0.0000E+00  0.0000E+00
     11.495  0.0000E+00  0.0000E+00  0.0000E+00
     11.661  0.0000E+00  0.0000E+00  0.0000E+00
     11.66133108    -38.11228045  301      5.02488473      1.00000000
    -38.112  0.0000E+00  0.0000E+00  0.0000E+00
    -37.946  0.0000E+00  0.0000E+00  0.0000E+00
    -37.780  0.0000E+00  0.0000E+00  0.0000E+00
    -37.615  0.0000E+00  0.0000E+00  0.0000E+00
    -37.449  0.0000E+00  0.0000E+00  0.0000E+00
    -37.283  0.0000E+00  0.0000E+00  0.0000E+00
    -37.117  0.0000E+00  0.0000E+00  0.0000E+00
    -36.951  0.0000E+00  0.0000E+00  0.0000E+00
    -36.785  0.0000E+00  0.0000E+00  0.0000E+00
    -36.619  0.0000E+00  0.0000E+00  0.0000E+00
    -36.453  0.0000E+00  0.0000E+00  0.0000E+00
    -36.287  0.0000E+00  0.0000E+00  0.0000E+00
    -36.121  0.0000E+00  0.0000E+00  0.0000E+00
    -35.955  0.0000E+00  0.0000E+00  0.0000E+00
    -35.790  0.1188E+02  0.2675E-05  0.6371E-04
    -35.624  0.0000E+00  0.0000E+00  0.0000E+00
    -35.458  0.0000E+00  0.0000E+00  0.0000E+00
    -35.292  0.0000E+00  0.0000E+00  0.0000E+00
    -35.126  0.0000E+00  0.0000E+00  0.0000E+00
    -34.960  0.0000E+00  0.0000E+00  0.0000E+00
    -34.794  0.0000E+00  0.0000E+00  0.0000E+00
    -34.628  0.0000E+00  0.0000E+00  0.0000E+00
    -34.462  0.0000E+00  0.0000E+00  0.0000E+00
    -34.296  0.0000E+00  0.0000E+00  0.0000E+00
    -34.130  0.0000E+00  0.0000E+00  0.0000E+00
    -33.964  0.0000E+00  0.0000E+00  0.0000E+00
    -33.799  0.0000E+00  0.0000E+00  0.0000E+00
    -33.633  0.0000E+00  0.0000E+00  0.0000E+00
    -33.467  0.0000E+00  0.0000E+00  0.0000E+00
    -33.301  0.0000E+00  0.0000E+00  0.0000E+00
    -33.135  0.0000E+00  0.0000E+00  0.0000E+00
    -32.969  0.0000E+00  0.0000E+00  0.0000E+00
    -32.803  0.0000E+00  0.0000E+00  0.0000E+00
    -32.637  0.0000E+00  0.0000E+00  0.0000E+00
    -32.471  0.0000E+00  0.0000E+00  0.0000E+00
    -32.305  0.0000E+00  0.0000E+00  0.0000E+00
    -32.139  0.0000E+00  0.0000E+00  0.0000E+00
    -31.974  0.0000E+00  0.0000E+00  0.0000E+00
    -31.808  0.0000E+00  0.0000E+00  0.0000E+00
    -31.642  0.0000E+00  0.0000E+00  0.0000E+00
    -31.476  0.0000E+00  0.0000E+00  0.0000E+00
    -31.310  0.0000E+00  0.0000E+00  0.0000E+00
    -31.144  0.0000E+00  0.0000E+00  0.0000E+00
    -30.978  0.0000E+00  0.0000E+00  0.0000E+00
    -30.812  0.0000E+00  0.0000E+00  0.0000E+00
    -30.646  0.0000E+00  0.0000E+00  0.0000E+00
    -30.480  0.0000E+00  0.0000E+00  0.0000E+00
    -30.314  0.0000E+00  0.0000E+00  0.0000E+00
    -30.149  0.0000E+00  0.0000E+00  0.0000E+00
    -29.983  0.0000E+00  0.0000E+00  0.0000E+00
    -29.817  0.0000E+00  0.0000E+00  0.0000E+00
    -29.651  0.0000E+00  0.0000E+00  0.0000E+00
    -29.485  0.0000E+00  0.0000E+00  0.0000E+00
    -29.319  0.0000E+00  0.0000E+00  0.0000E+00
    -29.153  0.0000E+00  0.0000E+00  0.0000E+00
    -28.987  0.0000E+00  0.0000E+00  0.0000E+00
    -28.821  0.0000E+00  0.0000E+00  0.0000E+00
    -28.655  0.0000E+00  0.0000E+00  0.0000E+00
    -28.489  0.0000E+00  0.0000E+00  0.0000E+00
    -28.323  0.0000E+00  0.0000E+00  0.0000E+00
    -28.158  0.0000E+00  0.0000E+00  0.0000E+00
    -27.992  0.0000E+00  0.0000E+00  0.0000E+00
    -27.826  0.0000E+00  0.0000E+00  0.0000E+00
    -27.660  0.0000E+00  0.0000E+00  0.0000E+00
    -27.494  0.0000E+00  0.0000E+00  0.0000E+00
    -27.328  0.0000E+00  0.0000E+00  0.0000E+00
    -27.162  0.0000E+00  0.0000E+00  0.0000E+00
    -26.996  0.0000E+00  0.0000E+00  0.0000E+00
    -26.830  0.0000E+00  0.0000E+00  0.0000E+00
    -26.664  0.0000E+00  0.0000E+00  0.0000E+00
    -26.498  0.0000E+00  0.0000E+00  0.0000E+00
    -26.333  0.0000E+00  0.0000E+00  0.0000E+00
    -26.167  0.0000E+00  0.0000E+00  0.0000E+00
    -26.001  0.0000E+00  0.0000E+00  0.0000E+00
    -25.835  0.0000E+00  0.0000E+00  0.0000E+00
    -25.669  0.0000E+00  0.0000E+00  0.0000E+00
    -25.503  0.0000E+00  0.0000E+00  0.0000E+00
    -25.337  0.0000E+00  0.0000E+00  0.0000E+00
    -25.171  0.0000E+00  0.0000E+00  0.0000E+00
    -25.005  0.0000E+00  0.0000E+00  0.0000E+00
    -24.839  0.0000E+00  0.0000E+00  0.0000E+00
    -24.673  0.0000E+00  0.0000E+00  0.0000E+00
    -24.507  0.0000E+00  0.0000E+00  0.0000E+00
    -24.342  0.0000E+00  0.0000E+00  0.0000E+00
    -24.176  0.0000E+00  0.0000E+00  0.0000E+00
    -24.010  0.0000E+00  0.0000E+00  0.0000E+00
    -23.844  0.0000E+00  0.0000E+00  0.0000E+00
    -23.678  0.0000E+00  0.0000E+00  0.0000E+00
    -23.512  0.0000E+00  0.0000E+00  0.0000E+00
    -23.346  0.0000E+00  0.0000E+00  0.0000E+00