   2   2   1   0
  0.2034159E+02  0.3439312E-09  0.3439312E-09  0.3439312E-09  0.1000000E-15
  1.000000000000000E-004
  CAR 
 DFT routine                             
     11.67908358     -3.88848014  301      0.33035736      1.00000000
     -3.888  0.0000E+00  0.0000E+00
     -3.837  0.0000E+00  0.0000E+00
     -3.785  0.0000E+00  0.0000E+00
     -3.733  0.0000E+00  0.0000E+00
     -3.681  0.0000E+00  0.0000E+00
     -3.629  0.0000E+00  0.0000E+00
     -3.577  0.0000E+00  0.0000E+00
     -3.525  0.0000E+00  0.0000E+00
     -3.473  0.0000E+00  0.0000E+00
     -3.421  0.0000E+00  0.0000E+00
     -3.370  0.0000E+00  0.0000E+00
     -3.318  0.0000E+00  0.0000E+00
     -3.266  0.0000E+00  0.0000E+00
     -3.214  0.7961E-08  0.4131E-09
     -3.162  0.5267E-02  0.2733E-03
     -3.110  0.2014E-04  0.2743E-03
     -3.058  0.2430E-01  0.1535E-02
     -3.006  0.7423E-02  0.1920E-02
     -2.954  0.7284E-02  0.2298E-02
     -2.903  0.5616E-01  0.5213E-02
     -2.851  0.3787E-04  0.5215E-02
     -2.799  0.4226E-01  0.7407E-02
     -2.747  0.1846E-08  0.7407E-02
     -2.695  0.3106E-01  0.9019E-02
     -2.643  0.6567E-03  0.9053E-02
     -2.591  0.7310E-01  0.1285E-01
     -2.539  0.5379E-01  0.1564E-01
     -2.487  0.5826E-02  0.1594E-01
     -2.436  0.1211E+00  0.2222E-01
     -2.384  0.0000E+00  0.2222E-01
     -2.332  0.0000E+00  0.2222E-01
     -2.280  0.1974E-08  0.2222E-01
     -2.228  0.6173E-01  0.2543E-01
     -2.176  0.1715E-02  0.2551E-01
     -2.124  0.6552E-01  0.2891E-01
     -2.072  0.9309E-01  0.3374E-01
     -2.020  0.2419E-03  0.3376E-01
     -1.968  0.1266E+00  0.4033E-01
     -1.917  0.2459E-06  0.4033E-01
     -1.865  0.1265E+00  0.4689E-01
     -1.813  0.4133E-03  0.4691E-01
     -1.761  0.3948E-01  0.4896E-01
     -1.709  0.2815E-02  0.4911E-01
     -1.657  0.5200E-01  0.5181E-01
     -1.605  0.7489E-01  0.5569E-01
     -1.553  0.3188E-02  0.5586E-01
     -1.501  0.2506E+00  0.6886E-01
     -1.450  0.0000E+00  0.6886E-01
     -1.398  0.0000E+00  0.6886E-01
     -1.346  0.0000E+00  0.6886E-01
     -1.294  0.1131E-03  0.6887E-01
     -1.242  0.3161E-01  0.7051E-01
     -1.190  0.3145E-01  0.7214E-01
     -1.138  0.2223E+00  0.8367E-01
     -1.086  0.3805E-01  0.8565E-01
     -1.034  0.1506E+00  0.9347E-01
     -0.983  0.3281E-02  0.9364E-01
     -0.931  0.1253E+00  0.1001E+00
     -0.879  0.3795E-10  0.1001E+00
     -0.827  0.1110E+00  0.1059E+00
     -0.775  0.1593E-01  0.1067E+00
     -0.723  0.4884E-01  0.1093E+00
     -0.671  0.2049E+00  0.1199E+00
     -0.619  0.3242E-02  0.1201E+00
     -0.567  0.1236E+00  0.1265E+00
     -0.516  0.0000E+00  0.1265E+00
     -0.464  0.0000E+00  0.1265E+00
     -0.412  0.8413E-10  0.1265E+00
     -0.360  0.1140E+00  0.1324E+00
     -0.308  0.1276E+00  0.1390E+00
     -0.256  0.1209E-01  0.1396E+00
     -0.204  0.6370E-02  0.1400E+00
     -0.152  0.2791E+00  0.1545E+00
     -0.100  0.1072E-03  0.1545E+00
     -0.048  0.1268E+00  0.1610E+00
      0.003  0.4208E-01  0.1632E+00
      0.055  0.1271E+00  0.1698E+00
      0.107  0.1188E-04  0.1698E+00
      0.159  0.4325E-04  0.1698E+00
      0.211  0.3142E+00  0.1861E+00
      0.263  0.6641E-01  0.1896E+00
      0.315  0.6713E-01  0.1931E+00
      0.367  0.2501E+00  0.2060E+00
      0.419  0.1148E-03  0.2060E+00
      0.470  0.1268E+00  0.2126E+00
      0.522  0.0000E+00  0.2126E+00
      0.574  0.6581E-02  0.2130E+00
      0.626  0.1203E+00  0.2192E+00
      0.678  0.1204E+00  0.2255E+00
      0.730  0.2680E+00  0.2394E+00
      0.782  0.1064E+00  0.2449E+00
      0.834  0.7625E-01  0.2488E+00
      0.886  0.2501E+00  0.2618E+00
      0.937  0.3697E-02  0.2620E+00
      0.989  0.0000E+00  0.2620E+00
      1.041  0.0000E+00  0.2620E+00
      1.093  0.4669E-07  0.2620E+00
      1.145  0.2507E+00  0.2750E+00
      1.197  0.3478E-01  0.2768E+00
      1.249  0.2515E-01  0.2781E+00
      1.301  0.1017E+00  0.2834E+00
      1.353  0.2733E+00  0.2976E+00
      1.404  0.4387E-01  0.2999E+00
      1.456  0.1267E+00  0.3064E+00
      1.508  0.1271E+00  0.3130E+00
      1.560  0.2440E+00  0.3257E+00
      1.612  0.1367E+00  0.3328E+00
      1.664  0.0000E+00  0.3328E+00
      1.716  0.1437E-03  0.3328E+00
      1.768  0.1267E+00  0.3394E+00
      1.820  0.0000E+00  0.3394E+00
      1.872  0.4241E-02  0.3396E+00
      1.923  0.1227E+00  0.3460E+00
      1.975  0.1268E+00  0.3525E+00
      2.027  0.6017E-05  0.3525E+00
      2.079  0.1720E-05  0.3525E+00
      2.131  0.1268E+00  0.3591E+00
      2.183  0.1064E-03  0.3591E+00
      2.235  0.0000E+00  0.3591E+00
      2.287  0.0000E+00  0.3591E+00
      2.339  0.6104E-16  0.3591E+00
      2.390  0.1220E-01  0.3598E+00
      2.442  0.3009E-01  0.3613E+00
      2.494  0.2408E-13  0.3613E+00
      2.546  0.3601E-01  0.3632E+00
      2.598  0.2743E-01  0.3646E+00
      2.650  0.2193E-12  0.3646E+00
      2.702  0.8279E-01  0.3689E+00
      2.754  0.1288E+00  0.3756E+00
      2.806  0.6568E-01  0.3790E+00
      2.857  0.9283E-01  0.3838E+00
      2.909  0.1269E+00  0.3904E+00
      2.961  0.1327E-04  0.3904E+00
      3.013  0.0000E+00  0.3904E+00
      3.065  0.0000E+00  0.3904E+00
      3.117  0.1341E-10  0.3904E+00
      3.169  0.7231E-01  0.3942E+00
      3.221  0.9687E-01  0.3992E+00
      3.273  0.0000E+00  0.3992E+00
      3.324  0.0000E+00  0.3992E+00
      3.376  0.0000E+00  0.3992E+00
      3.428  0.3883E-08  0.3992E+00
      3.480  0.1234E+00  0.4056E+00
      3.532  0.3453E-02  0.4058E+00
      3.584  0.1252E+00  0.4123E+00
      3.636  0.3860E-02  0.4125E+00
      3.688  0.3150E+00  0.4288E+00
      3.740  0.7044E-17  0.4288E+00
      3.792  0.3143E-01  0.4304E+00
      3.843  0.2223E+00  0.4420E+00
      3.895  0.6318E-01  0.4453E+00
      3.947  0.1258E+00  0.4518E+00
      3.999  0.1369E-02  0.4519E+00
      4.051  0.3874E-16  0.4519E+00
      4.103  0.2135E-01  0.4530E+00
      4.155  0.5491E+00  0.4815E+00
      4.207  0.9815E-02  0.4820E+00
      4.259  0.4983E+00  0.5078E+00
      4.310  0.2085E-01  0.5089E+00
      4.362  0.1578E+00  0.5171E+00
      4.414  0.7501E-01  0.5210E+00
      4.466  0.3875E-01  0.5230E+00
      4.518  0.2891E+00  0.5380E+00
      4.570  0.3869E-01  0.5400E+00
      4.622  0.8830E-01  0.5446E+00
      4.674  0.1268E+00  0.5512E+00
      4.726  0.8846E-04  0.5512E+00
      4.777  0.0000E+00  0.5512E+00
      4.829  0.0000E+00  0.5512E+00
      4.881  0.1141E-10  0.5512E+00
      4.933  0.1055E+00  0.5566E+00
      4.985  0.2156E-01  0.5578E+00
      5.037  0.1267E+00  0.5643E+00
      5.089  0.0000E+00  0.5643E+00
      5.141  0.5122E-09  0.5643E+00
      5.193  0.1195E+00  0.5705E+00
      5.244  0.1051E+00  0.5760E+00
      5.296  0.3448E+00  0.5939E+00
      5.348  0.2531E+00  0.6070E+00
      5.400  0.2547E-02  0.6071E+00
      5.452  0.1593E+00  0.6154E+00
      5.504  0.2211E+00  0.6269E+00
      5.556  0.1266E+00  0.6335E+00
      5.608  0.2502E-03  0.6335E+00
      5.660  0.8494E-06  0.6335E+00
      5.712  0.1267E+00  0.6400E+00
      5.763  0.1799E-03  0.6401E+00
      5.815  0.0000E+00  0.6401E+00
      5.867  0.3797E-08  0.6401E+00
      5.919  0.1569E-01  0.6409E+00
      5.971  0.1683E-03  0.6409E+00
      6.023  0.4270E-06  0.6409E+00
      6.075  0.9780E-01  0.6460E+00
      6.127  0.4088E-01  0.6481E+00
      6.179  0.9396E-01  0.6529E+00
      6.230  0.7770E-01  0.6570E+00
      6.282  0.1126E+00  0.6628E+00
      6.334  0.7451E-12  0.6628E+00
      6.386  0.9080E-01  0.6675E+00
      6.438  0.2053E+00  0.6782E+00
      6.490  0.4319E-01  0.6804E+00
      6.542  0.1619E+00  0.6888E+00
      6.594  0.2752E-01  0.6903E+00
      6.646  0.1670E+00  0.6989E+00
      6.697  0.2771E+00  0.7133E+00
      6.749  0.4000E+00  0.7341E+00
      6.801  0.3610E+00  0.7528E+00
      6.853  0.3203E-02  0.7530E+00
      6.905  0.1659E+00  0.7616E+00
      6.957  0.4152E-03  0.7616E+00
      7.009  0.0000E+00  0.7616E+00
      7.061  0.3937E-02  0.7618E+00
      7.113  0.1833E+00  0.7713E+00
      7.164  0.1262E+00  0.7779E+00
      7.216  0.3781E-02  0.7781E+00
      7.268  0.2614E+00  0.7916E+00
      7.320  0.5582E-01  0.7945E+00
      7.372  0.2339E-05  0.7945E+00
      7.424  0.3998E+00  0.8153E+00
      7.476  0.1078E+00  0.8209E+00
      7.528  0.0000E+00  0.8209E+00
      7.580  0.0000E+00  0.8209E+00
      7.632  0.0000E+00  0.8209E+00
      7.683  0.0000E+00  0.8209E+00
      7.735  0.0000E+00  0.8209E+00
      7.787  0.3253E-13  0.8209E+00
      7.839  0.7562E-01  0.8248E+00
      7.891  0.3050E+00  0.8406E+00
      7.943  0.0000E+00  0.8406E+00
      7.995  0.1097E-02  0.8407E+00
      8.047  0.1565E+00  0.8488E+00
      8.099  0.9757E-01  0.8538E+00
      8.150  0.1970E+00  0.8641E+00
      8.202  0.1876E+00  0.8738E+00
      8.254  0.1241E+00  0.8802E+00
      8.306  0.3360E+00  0.8977E+00
      8.358  0.1577E-01  0.8985E+00
      8.410  0.1399E-04  0.8985E+00
      8.462  0.2452E+00  0.9112E+00
      8.514  0.8537E-02  0.9117E+00
      8.566  0.6069E-01  0.9148E+00
      8.617  0.2749E-02  0.9150E+00
      8.669  0.2554E-09  0.9150E+00
      8.721  0.2310E+00  0.9269E+00
      8.773  0.3597E-01  0.9288E+00
      8.825  0.1856E-01  0.9298E+00
      8.877  0.1268E+00  0.9363E+00
      8.929  0.3019E-04  0.9364E+00
      8.981  0.0000E+00  0.9364E+00
      9.033  0.0000E+00  0.9364E+00
      9.084  0.0000E+00  0.9364E+00
      9.136  0.0000E+00  0.9364E+00
      9.188  0.9132E-13  0.9364E+00
      9.240  0.4052E-01  0.9385E+00
      9.292  0.2292E-01  0.9396E+00
      9.344  0.0000E+00  0.9396E+00
      9.396  0.0000E+00  0.9396E+00
      9.448  0.0000E+00  0.9396E+00
      9.500  0.2331E-01  0.9409E+00
      9.552  0.2351E+00  0.9531E+00
      9.603  0.3157E-01  0.9547E+00
      9.655  0.2727E-01  0.9561E+00
      9.707  0.3312E-10  0.9561E+00
      9.759  0.1104E+00  0.9618E+00
      9.811  0.1650E-01  0.9627E+00
      9.863  0.5226E-09  0.9627E+00
      9.915  0.1196E+00  0.9689E+00
      9.967  0.7071E-01  0.9726E+00
     10.019  0.2955E+00  0.9879E+00
     10.070  0.5847E-03  0.9879E+00
     10.122  0.0000E+00  0.9879E+00
     10.174  0.0000E+00  0.9879E+00
     10.226  0.0000E+00  0.9879E+00
     10.278  0.6153E-05  0.9879E+00
     10.330  0.6343E-01  0.9912E+00
     10.382  0.9643E-05  0.9912E+00
     10.434  0.0000E+00  0.9912E+00
     10.486  0.8725E-05  0.9912E+00
     10.537  0.4228E-01  0.9934E+00
     10.589  0.2978E-05  0.9934E+00
     10.641  0.0000E+00  0.9934E+00
     10.693  0.0000E+00  0.9934E+00
     10.745  0.0000E+00  0.9934E+00
     10.797  0.0000E+00  0.9934E+00
     10.849  0.0000E+00  0.9934E+00
     10.901  0.0000E+00  0.9934E+00
     10.953  0.4832E-03  0.9934E+00
     11.004  0.1264E+00  0.1000E+01
     11.056  0.0000E+00  0.1000E+01
     11.108  0.0000E+00  0.1000E+01
     11.160  0.0000E+00  0.1000E+01
     11.212  0.0000E+00  0.1000E+01
     11.264  0.0000E+00  0.1000E+01
     11.316  0.0000E+00  0.1000E+01
     11.368  0.0000E+00  0.1000E+01
     11.420  0.0000E+00  0.1000E+01
     11.472  0.0000E+00  0.1000E+01
     11.523  0.0000E+00  0.1000E+01
     11.575  0.0000E+00  0.1000E+01
     11.627  0.0000E+00  0.1000E+01
     11.679  0.0000E+00  0.1000E+01
     11.67908358     -3.88848014  301      0.33035736      1.00000000
     -3.888  0.0000E+00  0.0000E+00  0.0000E+00
     -3.837  0.0000E+00  0.0000E+00  0.0000E+00
     -3.785  0.0000E+00  0.0000E+00  0.0000E+00
     -3.733  0.0000E+00  0.0000E+00  0.0000E+00
     -3.681  0.0000E+00  0.0000E+00  0.0000E+00
     -3.629  0.0000E+00  0.0000E+00  0.0000E+00
     -3.577  0.0000E+00  0.0000E+00  0.0000E+00
     -3.525  0.0000E+00  0.0000E+00  0.0000E+00
     -3.473  0.0000E+00  0.0000E+00  0.0000E+00
     -3.421  0.0000E+00  0.0000E+00  0.0000E+00
     -3.370  0.0000E+00  0.0000E+00  0.0000E+00
     -3.318  0.0000E+00  0.0000E+00  0.0000E+00
     -3.266  0.0000E+00  0.0000E+00  0.0000E+00
     -3.214  0.7854E-08  0.1281E-22  0.0000E+00
     -3.162  0.5196E-02  0.8474E-17  0.0000E+00
     -3.110  0.1987E-04  0.1661E-13  0.0000E+00
     -3.058  0.2342E-01  0.6751E-03  0.0000E+00
     -3.006  0.7155E-02  0.2062E-03  0.0000E+00
     -2.954  0.6856E-02  0.4050E-03  0.0000E+00
     -2.903  0.5286E-01  0.3122E-02  0.0000E+00
     -2.851  0.3479E-04  0.3156E-05  0.0000E+00
     -2.799  0.3881E-01  0.3521E-02  0.0000E+00
     -2.747  0.1657E-08  0.2009E-09  0.0000E+00
     -2.695  0.2789E-01  0.3381E-02  0.0000E+00
     -2.643  0.5895E-03  0.7147E-04  0.0000E+00
     -2.591  0.6394E-01  0.1001E-01  0.0000E+00
     -2.539  0.4705E-01  0.7364E-02  0.0000E+00
     -2.487  0.4965E-02  0.9588E-03  0.0000E+00
     -2.436  0.1032E+00  0.1992E-01  0.0000E+00
     -2.384  0.0000E+00  0.0000E+00  0.0000E+00
     -2.332  0.0000E+00  0.0000E+00  0.0000E+00
     -2.280  0.1593E-08  0.4338E-09  0.0000E+00
     -2.228  0.4980E-01  0.1356E-01  0.0000E+00
     -2.176  0.1383E-02  0.3768E-03  0.0000E+00
     -2.124  0.5145E-01  0.1610E-01  0.0000E+00
     -2.072  0.7330E-01  0.2265E-01  0.0000E+00
     -2.020  0.1862E-03  0.6428E-04  0.0000E+00
     -1.968  0.9745E-01  0.3364E-01  0.0000E+00
     -1.917  0.1835E-06  0.7220E-07  0.0000E+00
     -1.865  0.9439E-01  0.3714E-01  0.0000E+00
     -1.813  0.3085E-03  0.1214E-03  0.0000E+00
     -1.761  0.2842E-01  0.1283E-01  0.0000E+00
     -1.709  0.2026E-02  0.9143E-03  0.0000E+00
     -1.657  0.3625E-01  0.1836E-01  0.0000E+00
     -1.605  0.5220E-01  0.2644E-01  0.0000E+00
     -1.553  0.2156E-02  0.1205E-02  0.0000E+00
     -1.501  0.1695E+00  0.9470E-01  0.0000E+00
     -1.450  0.0000E+00  0.0000E+00  0.0000E+00
     -1.398  0.0000E+00  0.0000E+00  0.0000E+00
     -1.346  0.0000E+00  0.0000E+00  0.0000E+00
     -1.294  0.7461E-04  0.4534E-04  0.0000E+00
     -1.242  0.2085E-01  0.1267E-01  0.0000E+00
     -1.190  0.1929E-01  0.1425E-01  0.0000E+00
     -1.138  0.1389E+00  0.9810E-01  0.0000E+00
     -1.086  0.2189E-01  0.1901E-01  0.0000E+00
     -1.034  0.9084E-01  0.7050E-01  0.0000E+00
     -0.983  0.1917E-02  0.1607E-02  0.0000E+00
     -0.931  0.6998E-01  0.6507E-01  0.0000E+00
     -0.879  0.2091E-10  0.2014E-10  0.0000E+00
     -0.827  0.6112E-01  0.5888E-01  0.0000E+00
     -0.775  0.8775E-02  0.8453E-02  0.0000E+00
     -0.723  0.2596E-01  0.2703E-01  0.0000E+00
     -0.671  0.1089E+00  0.1134E+00  0.0000E+00
     -0.619  0.1642E-02  0.1883E-02  0.0000E+00
     -0.567  0.6261E-01  0.7181E-01  0.0000E+00
     -0.516  0.0000E+00  0.0000E+00  0.0000E+00
     -0.464  0.0000E+00  0.0000E+00  0.0000E+00
     -0.412  0.3951E-10  0.5267E-10  0.0000E+00
     -0.360  0.5356E-01  0.7140E-01  0.0000E+00
     -0.308  0.5210E-01  0.8933E-01  0.0000E+00
     -0.256  0.4851E-02  0.8560E-02  0.0000E+00
     -0.204  0.2489E-02  0.4587E-02  0.0000E+00
     -0.152  0.1126E+00  0.1970E+00  0.0000E+00
     -0.100  0.5108E-04  0.6710E-04  0.0000E+00
     -0.048  0.6041E-01  0.7934E-01  0.0000E+00
      0.003  0.1744E-01  0.2899E-01  0.0000E+00
      0.055  0.5708E-01  0.8358E-01  0.0000E+00
      0.107  0.5336E-05  0.7813E-05  0.0000E+00
      0.159  0.1529E-04  0.3297E-04  0.0000E+00
      0.211  0.1123E+00  0.2386E+00  0.0000E+00
      0.263  0.2478E-01  0.4956E-01  0.0000E+00
      0.315  0.1248E-01  0.6457E-01  0.0000E+00
      0.367  0.8900E-01  0.1916E+00  0.0000E+00
      0.419  0.1973E-04  0.1122E-03  0.0000E+00
      0.470  0.2179E-01  0.1238E+00  0.0000E+00
      0.522  0.0000E+00  0.0000E+00  0.0000E+00
      0.574  0.1134E-02  0.6446E-02  0.0000E+00
      0.626  0.2074E-01  0.1178E+00  0.0000E+00
      0.678  0.3569E-01  0.1004E+00  0.0000E+00
      0.730  0.3593E-01  0.2742E+00  0.0000E+00
      0.782  0.2313E-01  0.9815E-01  0.0000E+00
      0.834  0.2124E-01  0.6469E-01  0.0000E+00
      0.886  0.2089E-01  0.2696E+00  0.0000E+00
      0.937  0.3174E-05  0.4347E-02  0.0000E+00
      0.989  0.0000E+00  0.0000E+00  0.0000E+00
      1.041  0.0000E+00  0.0000E+00  0.0000E+00
      1.093  0.7321E-08  0.4640E-07  0.0000E+00
      1.145  0.3932E-01  0.2492E+00  0.0000E+00
      1.197  0.1156E-01  0.2819E-01  0.0000E+00
      1.249  0.7793E-02  0.2105E-01  0.0000E+00
      1.301  0.3152E-01  0.8515E-01  0.0000E+00
      1.353  0.2350E-01  0.2958E+00  0.0000E+00
      1.404  0.1188E-01  0.3863E-01  0.0000E+00
      1.456  0.2099E-01  0.1264E+00  0.0000E+00
      1.508  0.4045E-04  0.1501E+00  0.0000E+00
      1.560  0.3661E-01  0.2453E+00  0.0000E+00
      1.612  0.2154E-01  0.1377E+00  0.0000E+00
      1.664  0.0000E+00  0.0000E+00  0.0000E+00
      1.716  0.1579E-04  0.1501E-03  0.0000E+00
      1.768  0.1393E-01  0.1324E+00  0.0000E+00
      1.820  0.0000E+00  0.0000E+00  0.0000E+00
      1.872  0.4786E-03  0.4476E-02  0.0000E+00
      1.923  0.1384E-01  0.1295E+00  0.0000E+00
      1.975  0.8736E-15  0.1494E+00  0.0000E+00
      2.027  0.4144E-19  0.7086E-05  0.0000E+00
      2.079  0.3148E-22  0.2007E-05  0.0000E+00
      2.131  0.2320E-17  0.1479E+00  0.0000E+00
      2.183  0.1947E-20  0.1241E-03  0.0000E+00
      2.235  0.0000E+00  0.0000E+00  0.0000E+00
      2.287  0.0000E+00  0.0000E+00  0.0000E+00
      2.339  0.5051E-17  0.6532E-16  0.0000E+00
      2.390  0.1010E-02  0.1306E-01  0.0000E+00
      2.442  0.2490E-02  0.3220E-01  0.0000E+00
      2.494  0.4399E-30  0.2903E-13  0.0000E+00
      2.546  0.6580E-18  0.4342E-01  0.0000E+00
      2.598  0.5013E-18  0.3308E-01  0.0000E+00
      2.650  0.7261E-29  0.2643E-12  0.0000E+00
      2.702  0.2726E-17  0.9976E-01  0.0000E+00
      2.754  0.2225E-04  0.1526E+00  0.0000E+00
      2.806  0.1112E-01  0.6836E-01  0.0000E+00
      2.857  0.1317E-01  0.9920E-01  0.0000E+00
      2.909  0.1412E-01  0.1395E+00  0.0000E+00
      2.961  0.1477E-05  0.1459E-04  0.0000E+00
      3.013  0.0000E+00  0.0000E+00  0.0000E+00
      3.065  0.0000E+00  0.0000E+00  0.0000E+00
      3.117  0.1999E-26  0.1614E-10  0.0000E+00
      3.169  0.1223E-16  0.8707E-01  0.0000E+00
      3.221  0.7122E-15  0.1131E+00  0.0000E+00
      3.273  0.0000E+00  0.0000E+00  0.0000E+00
      3.324  0.0000E+00  0.0000E+00  0.0000E+00
      3.376  0.0000E+00  0.0000E+00  0.0000E+00
      3.428  0.8119E-09  0.3729E-08  0.0000E+00
      3.480  0.2581E-01  0.1185E+00  0.0000E+00
      3.532  0.7221E-03  0.3316E-02  0.0000E+00
      3.584  0.2523E-01  0.1187E+00  0.0000E+00
      3.636  0.2380E-02  0.1957E-02  0.0000E+00
      3.688  0.2616E+00  0.8820E-01  0.0000E+00
      3.740  0.2083E-34  0.8260E-17  0.0000E+00
      3.792  0.6300E-02  0.3042E-01  0.0000E+00
      3.843  0.7498E-01  0.1842E+00  0.0000E+00
      3.895  0.5193E-01  0.2113E-01  0.0000E+00
      3.947  0.2141E-03  0.1513E+00  0.0000E+00
      3.999  0.3744E-19  0.1649E-02  0.0000E+00
      4.051  0.3549E-16  0.8051E-17  0.0000E+00
      4.103  0.1598E-01  0.8621E-02  0.0000E+00
      4.155  0.2404E+00  0.4029E+00  0.0000E+00
      4.207  0.5603E-02  0.5666E-02  0.0000E+00
      4.259  0.3255E+00  0.2499E+00  0.0000E+00
      4.310  0.1520E-04  0.2758E-01  0.0000E+00
      4.362  0.2020E-01  0.1697E+00  0.0000E+00
      4.414  0.3257E-01  0.6127E-01  0.0000E+00
      4.466  0.6039E-04  0.5125E-01  0.0000E+00
      4.518  0.6543E-01  0.2946E+00  0.0000E+00
      4.570  0.3448E-02  0.4399E-01  0.0000E+00
      4.622  0.1702E-02  0.1061E+00  0.0000E+00
      4.674  0.6209E-01  0.9584E-01  0.0000E+00
      4.726  0.4332E-04  0.6687E-04  0.0000E+00
      4.777  0.0000E+00  0.0000E+00  0.0000E+00
      4.829  0.0000E+00  0.0000E+00  0.0000E+00
      4.881  0.8716E-24  0.1516E-10  0.0000E+00
      4.933  0.8060E-14  0.1402E+00  0.0000E+00
      4.985  0.1631E-14  0.2861E-01  0.0000E+00
      5.037  0.3495E-15  0.1534E+00  0.0000E+00
      5.089  0.0000E+00  0.0000E+00  0.0000E+00
      5.141  0.3075E-21  0.6044E-09  0.0000E+00
      5.193  0.3351E-08  0.1410E+00  0.0000E+00
      5.244  0.3350E-01  0.1101E+00  0.0000E+00
      5.296  0.1993E+00  0.2135E+00  0.0000E+00
      5.348  0.6410E-01  0.2375E+00  0.0000E+00
      5.400  0.6188E-03  0.2483E-02  0.0000E+00
      5.452  0.3054E-01  0.1919E+00  0.0000E+00
      5.504  0.5879E-01  0.2169E+00  0.0000E+00
      5.556  0.5682E-01  0.1033E+00  0.0000E+00
      5.608  0.1122E-03  0.2042E-03  0.0000E+00
      5.660  0.4267E-24  0.1136E-05  0.0000E+00
      5.712  0.6365E-19  0.1695E+00  0.0000E+00
      5.763  0.9039E-22  0.2406E-03  0.0000E+00
      5.815  0.0000E+00  0.0000E+00  0.0000E+00
      5.867  0.1145E-20  0.7079E-08  0.0000E+00
      5.919  0.4731E-14  0.2926E-01  0.0000E+00
      5.971  0.5074E-16  0.3138E-03  0.0000E+00
      6.023  0.8370E-12  0.7968E-06  0.0000E+00
      6.075  0.1176E-01  0.1684E+00  0.0000E+00
      6.127  0.8240E-02  0.5360E-01  0.0000E+00
      6.179  0.1585E-01  0.1198E+00  0.0000E+00
      6.230  0.5371E-02  0.1304E+00  0.0000E+00
      6.282  0.4239E-01  0.9423E-01  0.0000E+00
      6.334  0.8110E-24  0.9176E-12  0.0000E+00
      6.386  0.3155E-03  0.1118E+00  0.0000E+00
      6.438  0.1017E+00  0.2375E+00  0.0000E+00
      6.490  0.5835E-01  0.2364E-02  0.0000E+00
      6.542  0.9517E-01  0.1522E+00  0.0000E+00
      6.594  0.2634E-01  0.9737E-02  0.0000E+00
      6.646  0.8499E-01  0.1779E+00  0.0000E+00
      6.697  0.7549E-01  0.3620E+00  0.0000E+00
      6.749  0.1990E+00  0.3503E+00  0.0000E+00
      6.801  0.9680E-01  0.3794E+00  0.0000E+00
      6.853  0.6231E-04  0.3815E-02  0.0000E+00
      6.905  0.1540E+00  0.8729E-01  0.0000E+00
      6.957  0.5056E-03  0.1303E-03  0.0000E+00
      7.009  0.0000E+00  0.0000E+00  0.0000E+00
      7.061  0.1790E-02  0.5262E-02  0.0000E+00
      7.113  0.5589E-01  0.2786E+00  0.0000E+00
      7.164  0.2114E-01  0.1663E+00  0.0000E+00
      7.216  0.6493E-03  0.4929E-02  0.0000E+00
      7.268  0.1138E+00  0.3519E+00  0.0000E+00
      7.320  0.3082E-01  0.6700E-01  0.0000E+00
      7.372  0.1513E-06  0.4249E-05  0.0000E+00
      7.424  0.2759E+00  0.3864E+00  0.0000E+00
      7.476  0.1010E+00  0.6015E-01  0.0000E+00
      7.528  0.0000E+00  0.0000E+00  0.0000E+00
      7.580  0.0000E+00  0.0000E+00  0.0000E+00
      7.632  0.0000E+00  0.0000E+00  0.0000E+00
      7.683  0.0000E+00  0.0000E+00  0.0000E+00
      7.735  0.0000E+00  0.0000E+00  0.0000E+00
      7.787  0.6547E-27  0.6276E-13  0.0000E+00
      7.839  0.2894E-02  0.1400E+00  0.0000E+00
      7.891  0.1215E+00  0.3792E+00  0.0000E+00
      7.943  0.0000E+00  0.0000E+00  0.0000E+00
      7.995  0.5109E-03  0.1492E-02  0.0000E+00
      8.047  0.5859E-01  0.2105E+00  0.0000E+00
      8.099  0.8375E-10  0.1253E+00  0.0000E+00
      8.150  0.3629E-01  0.2617E+00  0.0000E+00
      8.202  0.9934E-01  0.2320E+00  0.0000E+00
      8.254  0.4541E-01  0.1283E+00  0.0000E+00
      8.306  0.6747E-01  0.4009E+00  0.0000E+00
      8.358  0.4441E-12  0.6884E-02  0.0000E+00
      8.410  0.5836E-10  0.2720E-04  0.0000E+00
      8.462  0.2101E-01  0.4082E+00  0.0000E+00
      8.514  0.1513E-02  0.1166E-01  0.0000E+00
      8.566  0.8522E-11  0.1213E+00  0.0000E+00
      8.617  0.3859E-12  0.5492E-02  0.0000E+00
      8.669  0.1173E-09  0.3454E-09  0.0000E+00
      8.721  0.1061E+00  0.3123E+00  0.0000E+00
      8.773  0.1047E-01  0.3082E-01  0.0000E+00
      8.825  0.4060E-13  0.1537E-04  0.0000E+00
      8.877  0.6284E-12  0.2545E+00  0.0000E+00
      8.929  0.1496E-15  0.6057E-04  0.0000E+00
      8.981  0.0000E+00  0.0000E+00  0.0000E+00
      9.033  0.0000E+00  0.0000E+00  0.0000E+00
      9.084  0.0000E+00  0.0000E+00  0.0000E+00
      9.136  0.0000E+00  0.0000E+00  0.0000E+00
      9.188  0.7942E-14  0.2349E-13  0.0000E+00
      9.240  0.3524E-02  0.1042E-01  0.0000E+00
      9.292  0.1993E-02  0.5895E-02  0.0000E+00
      9.344  0.0000E+00  0.0000E+00  0.0000E+00
      9.396  0.0000E+00  0.0000E+00  0.0000E+00
      9.448  0.0000E+00  0.0000E+00  0.0000E+00
      9.500  0.6296E-02  0.3894E-01  0.0000E+00
      9.552  0.3683E-01  0.4297E+00  0.0000E+00
      9.603  0.3219E-11  0.8949E-02  0.0000E+00
      9.655  0.1606E-10  0.5486E-01  0.0000E+00
      9.707  0.9844E-19  0.5029E-10  0.0000E+00
      9.759  0.3281E-09  0.1676E+00  0.0000E+00
      9.811  0.4903E-10  0.2505E-01  0.0000E+00
      9.863  0.7492E-10  0.1338E-09  0.0000E+00
      9.915  0.1714E-01  0.3062E-01  0.0000E+00
      9.967  0.2031E-01  0.8295E-01  0.0000E+00
     10.019  0.5046E-01  0.4181E+00  0.0000E+00
     10.070  0.1092E-03  0.8603E-03  0.0000E+00
     10.122  0.0000E+00  0.0000E+00  0.0000E+00
     10.174  0.0000E+00  0.0000E+00  0.0000E+00
     10.226  0.0000E+00  0.0000E+00  0.0000E+00
     10.278  0.5234E-12  0.1502E-04  0.0000E+00
     10.330  0.5395E-08  0.1548E+00  0.0000E+00
     10.382  0.8202E-12  0.2354E-04  0.0000E+00
     10.434  0.0000E+00  0.0000E+00  0.0000E+00
     10.486  0.1155E-14  0.4733E-05  0.0000E+00
     10.537  0.5596E-11  0.2294E-01  0.0000E+00
     10.589  0.3941E-15  0.1616E-05  0.0000E+00
     10.641  0.0000E+00  0.0000E+00  0.0000E+00
     10.693  0.0000E+00  0.0000E+00  0.0000E+00
     10.745  0.0000E+00  0.0000E+00  0.0000E+00
     10.797  0.0000E+00  0.0000E+00  0.0000E+00
     10.849  0.0000E+00  0.0000E+00  0.0000E+00
     10.901  0.0000E+00  0.0000E+00  0.0000E+00
     10.953  0.4773E-12  0.2641E-03  0.0000E+00
     11.004  0.1248E-09  0.6907E-01  0.0000E+00
     11.056  0.0000E+00  0.0000E+00  0.0000E+00
     11.108  0.0000E+00  0.0000E+00  0.0000E+00
     11.160  0.0000E+00  0.0000E+00  0.0000E+00
     11.212  0.0000E+00  0.0000E+00  0.0000E+00
     11.264  0.0000E+00  0.0000E+00  0.0000E+00
     11.316  0.0000E+00  0.0000E+00  0.0000E+00
     11.368  0.0000E+00  0.0000E+00  0.0000E+00
     11.420  0.0000E+00  0.0000E+00  0.0000E+00
     11.472  0.0000E+00  0.0000E+00  0.0000E+00
     11.523  0.0000E+00  0.0000E+00  0.0000E+00
     11.575  0.0000E+00  0.0000E+00  0.0000E+00
     11.627  0.0000E+00  0.0000E+00  0.0000E+00
     11.679  0.0000E+00  0.0000E+00  0.0000E+00
     11.67908358     -3.88848014  301      0.33035736      1.00000000
     -3.888  0.0000E+00  0.0000E+00  0.0000E+00
     -3.837  0.0000E+00  0.0000E+00  0.0000E+00
     -3.785  0.0000E+00  0.0000E+00  0.0000E+00
     -3.733  0.0000E+00  0.0000E+00  0.0000E+00
     -3.681  0.0000E+00  0.0000E+00  0.0000E+00
     -3.629  0.0000E+00  0.0000E+00  0.0000E+00
     -3.577  0.0000E+00  0.0000E+00  0.0000E+00
     -3.525  0.0000E+00  0.0000E+00  0.0000E+00
     -3.473  0.0000E+00  0.0000E+00  0.0000E+00
     -3.421  0.0000E+00  0.0000E+00  0.0000E+00
     -3.370  0.0000E+00  0.0000E+00  0.0000E+00
     -3.318  0.0000E+00  0.0000E+00  0.0000E+00
     -3.266  0.0000E+00  0.0000E+00  0.0000E+00
     -3.214  0.7854E-08  0.1009E-22  0.0000E+00
     -3.162  0.5196E-02  0.6678E-17  0.0000E+00
     -3.110  0.1987E-04  0.1661E-13  0.0000E+00
     -3.058  0.2342E-01  0.6751E-03  0.0000E+00
     -3.006  0.7155E-02  0.2062E-03  0.0000E+00
     -2.954  0.6856E-02  0.4050E-03  0.0000E+00
     -2.903  0.5286E-01  0.3122E-02  0.0000E+00
     -2.851  0.3479E-04  0.3156E-05  0.0000E+00
     -2.799  0.3881E-01  0.3521E-02  0.0000E+00
     -2.747  0.1657E-08  0.2009E-09  0.0000E+00
     -2.695  0.2789E-01  0.3381E-02  0.0000E+00
     -2.643  0.5895E-03  0.7147E-04  0.0000E+00
     -2.591  0.6394E-01  0.1001E-01  0.0000E+00
     -2.539  0.4705E-01  0.7365E-02  0.0000E+00
     -2.487  0.4965E-02  0.9588E-03  0.0000E+00
     -2.436  0.1032E+00  0.1992E-01  0.0000E+00
     -2.384  0.0000E+00  0.0000E+00  0.0000E+00
     -2.332  0.0000E+00  0.0000E+00  0.0000E+00
     -2.280  0.1593E-08  0.4338E-09  0.0000E+00
     -2.228  0.4980E-01  0.1356E-01  0.0000E+00
     -2.176  0.1383E-02  0.3768E-03  0.0000E+00
     -2.124  0.5145E-01  0.1610E-01  0.0000E+00
     -2.072  0.7330E-01  0.2265E-01  0.0000E+00
     -2.020  0.1862E-03  0.6428E-04  0.0000E+00
     -1.968  0.9745E-01  0.3365E-01  0.0000E+00
     -1.917  0.1835E-06  0.7220E-07  0.0000E+00
     -1.865  0.9439E-01  0.3714E-01  0.0000E+00
     -1.813  0.3085E-03  0.1214E-03  0.0000E+00
     -1.761  0.2842E-01  0.1283E-01  0.0000E+00
     -1.709  0.2026E-02  0.9143E-03  0.0000E+00
     -1.657  0.3625E-01  0.1836E-01  0.0000E+00
     -1.605  0.5220E-01  0.2644E-01  0.0000E+00
     -1.553  0.2156E-02  0.1205E-02  0.0000E+00
     -1.501  0.1695E+00  0.9470E-01  0.0000E+00
     -1.450  0.0000E+00  0.0000E+00  0.0000E+00
     -1.398  0.0000E+00  0.0000E+00  0.0000E+00
     -1.346  0.0000E+00  0.0000E+00  0.0000E+00
     -1.294  0.7461E-04  0.4534E-04  0.0000E+00
     -1.242  0.2085E-01  0.1267E-01  0.0000E+00
     -1.190  0.1929E-01  0.1425E-01  0.0000E+00
     -1.138  0.1389E+00  0.9810E-01  0.0000E+00
     -1.086  0.2189E-01  0.1901E-01  0.0000E+00
     -1.034  0.9084E-01  0.7050E-01  0.0000E+00
     -0.983  0.1917E-02  0.1607E-02  0.0000E+00
     -0.931  0.6998E-01  0.6507E-01  0.0000E+00
     -0.879  0.2091E-10  0.2014E-10  0.0000E+00
     -0.827  0.6112E-01  0.5888E-01  0.0000E+00
     -0.775  0.8775E-02  0.8453E-02  0.0000E+00
     -0.723  0.2596E-01  0.2703E-01  0.0000E+00
     -0.671  0.1089E+00  0.1134E+00  0.0000E+00
     -0.619  0.1642E-02  0.1883E-02  0.0000E+00
     -0.567  0.6261E-01  0.7181E-01  0.0000E+00
     -0.516  0.0000E+00  0.0000E+00  0.0000E+00
     -0.464  0.0000E+00  0.0000E+00  0.0000E+00
     -0.412  0.3951E-10  0.5267E-10  0.0000E+00
     -0.360  0.5356E-01  0.7140E-01  0.0000E+00
     -0.308  0.5210E-01  0.8933E-01  0.0000E+00
     -0.256  0.4851E-02  0.8560E-02  0.0000E+00
     -0.204  0.2489E-02  0.4587E-02  0.0000E+00
     -0.152  0.1126E+00  0.1970E+00  0.0000E+00
     -0.100  0.5108E-04  0.6710E-04  0.0000E+00
     -0.048  0.6041E-01  0.7934E-01  0.0000E+00
      0.003  0.1744E-01  0.2899E-01  0.0000E+00
      0.055  0.5708E-01  0.8358E-01  0.0000E+00
      0.107  0.5336E-05  0.7813E-05  0.0000E+00
      0.159  0.1529E-04  0.3297E-04  0.0000E+00
      0.211  0.1123E+00  0.2386E+00  0.0000E+00
      0.263  0.2478E-01  0.4956E-01  0.0000E+00
      0.315  0.1248E-01  0.6457E-01  0.0000E+00
      0.367  0.8900E-01  0.1916E+00  0.0000E+00
      0.419  0.1973E-04  0.1122E-03  0.0000E+00
      0.470  0.2179E-01  0.1238E+00  0.0000E+00
      0.522  0.0000E+00  0.0000E+00  0.0000E+00
      0.574  0.1134E-02  0.6446E-02  0.0000E+00
      0.626  0.2074E-01  0.1178E+00  0.0000E+00
      0.678  0.3569E-01  0.1004E+00  0.0000E+00
      0.730  0.3593E-01  0.2742E+00  0.0000E+00