    9    9    3    1
  0.1001493E+02  0.5188600E-09  0.5188600E-09  0.5188610E-09  0.1000000E-15
  1.000000000000000E-004
  CAR 
 DFT routine                             
     63     60     40
