    8    8    3    1
  0.1457861E+02  0.3499570E-09  0.4642220E-09  0.7179030E-09  0.1000000E-15
  1.000000000000000E-004
  CAR 
 DFT routine                             
     52     60     35
 
  0.0000000E+00  0.0000000E+00  0.0000000E+00  0.4629630E-02
    1      -35.849844   1.000000
    2      -35.842801   1.000000
    3      -17.065586   1.000000
    4      -16.947896   1.000000
    5      -16.866115   1.000000
    6      -16.848441   1.000000
    7      -16.791343   1.000000
    8      -16.782583   1.000000
    9       -8.491669   1.000000
   10       -7.704990   1.000000
   11       -1.910902   1.000000
   12       -1.655552   1.000000
   13       -1.173294   1.000000
   14        0.190591   1.000000
   15        0.809480   1.000000
   16        1.230052   1.000000
   17        1.444557   1.000000
   18        2.335127   1.000000
   19        3.033532   1.000000
   20        3.802119   1.000000
   21        3.915920   1.000000
   22        4.293361   1.000000
   23        4.304453   1.000000
   24        4.403997   1.000000
   25        4.540135   1.000000
   26        4.852350   1.000000
   27        5.210436   0.000000
   28        5.889358   0.000000
   29        6.191712   0.000000
   30        7.212984   0.000000
   31        7.631148   0.000000
   32        8.057149   0.000000
   33        8.299551   0.000000
   34        8.576086   0.000000
   35        9.100216   0.000000
 
  0.1111111E+00  0.3081488E-32  0.0000000E+00  0.9259259E-02
    1      -35.848668   1.000000
    2      -35.841611   1.000000
    3      -17.063482   1.000000
    4      -16.946503   1.000000
    5      -16.864624   1.000000
    6      -16.847104   1.000000
    7      -16.808426   1.000000
    8      -16.799035   1.000000
    9       -8.393230   1.000000
   10       -7.635743   1.000000
   11       -1.984759   1.000000
   12       -1.843910   1.000000
   13       -1.778337   1.000000
   14        0.304022   1.000000
   15        0.910152   1.000000
   16        1.472869   1.000000
   17        1.822530   1.000000
   18        2.288347   1.000000
   19        3.181174   1.000000
   20        3.879161   1.000000
   21        3.930334   1.000000
   22        4.319355   1.000000
   23        4.367788   1.000000
   24        4.532258   1.000000
   25        4.569143   1.000000
   26        5.054856   0.000011
   27        5.073813   0.000000
   28        6.090572   0.000000
   29        6.268361   0.000000
   30        7.177249   0.000000
   31        7.313543   0.000000
   32        7.832136   0.000000
   33        8.141695   0.000000
   34        8.229215   0.000000
   35        8.556390   0.000000
 
  0.2222222E+00  0.6162976E-32  0.0000000E+00  0.9259259E-02
    1      -35.845656   1.000000
    2      -35.838612   1.000000
    3      -17.058157   1.000000
    4      -16.942991   1.000000
    5      -16.860854   1.000000
    6      -16.851423   1.000000
    7      -16.843733   1.000000
    8      -16.840420   1.000000
    9       -8.107988   1.000000
   10       -7.439779   1.000000
   11       -3.012096   1.000000
   12       -2.723584   1.000000
   13       -1.388885   1.000000
   14        0.641436   1.000000
   15        1.206540   1.000000
   16        1.547188   1.000000
   17        2.099204   1.000000
   18        2.738101   1.000000
   19        3.578151   1.000000
   20        3.971303   1.000000
   21        4.068723   1.000000
   22        4.237287   1.000000
   23        4.386898   1.000000
   24        4.514068   1.000000
   25        4.561170   1.000000
   26        4.885197   1.000000
   27        5.605056   0.000000
   28        6.336475   0.000000
   29        6.606986   0.000000
   30        6.884854   0.000000
   31        6.969279   0.000000
   32        7.083303   0.000000
   33        7.401214   0.000000
   34        7.672455   0.000000
   35        8.466743   0.000000
 
  0.3333333E+00  0.1232595E-31  0.0000000E+00  0.9259259E-02
    1      -35.842203   1.000000
    2      -35.835200   1.000000
    3      -17.051989   1.000000
    4      -16.938935   1.000000
    5      -16.899727   1.000000
    6      -16.886975   1.000000
    7      -16.856568   1.000000
    8      -16.839872   1.000000
    9       -7.679803   1.000000
   10       -7.164234   1.000000
   11       -4.114308   1.000000
   12       -3.493091   1.000000
   13       -0.769181   1.000000
   14        1.192677   1.000000
   15        1.636851   1.000000
   16        1.649521   1.000000
   17        1.673360   1.000000
   18        3.494409   1.000000
   19        3.760083   1.000000
   20        3.931914   1.000000
   21        4.028881   1.000000
   22        4.090725   1.000000
   23        4.261406   1.000000
   24        4.467081   1.000000
   25        4.496979   1.000000
   26        4.968035   1.000000
   27        5.447711   0.000000
   28        5.983605   0.000000
   29        6.009329   0.000000
   30        6.954918   0.000000
   31        6.977020   0.000000
   32        7.022191   0.000000
   33        7.442694   0.000000
   34        7.654141   0.000000
   35        7.985182   0.000000
 
  0.4444444E+00  0.1232595E-31  0.0000000E+00  0.9259259E-02
    1      -35.839937   1.000000
    2      -35.833014   1.000000
    3      -17.048040   1.000000
    4      -16.936306   1.000000
    5      -16.930993   1.000000
    6      -16.917188   1.000000
    7      -16.853747   1.000000
    8      -16.837370   1.000000
    9       -7.264715   1.000000
   10       -6.932108   1.000000
   11       -4.881756   1.000000
   12       -4.002529   1.000000
   13        0.022004   1.000000
   14        0.911136   1.000000
   15        1.698626   1.000000
   16        1.934220   1.000000
   17        2.197878   1.000000
   18        2.828549   1.000000
   19        3.450625   1.000000
   20        3.947935   1.000000
   21        4.075237   1.000000
   22        4.347827   1.000000
   23        4.487983   1.000000
   24        4.521626   1.000000
   25        4.600498   1.000000
   26        4.973380   1.000000
   27        5.048751   0.000369
   28        5.551898   0.000000
   29        6.137033   0.000000
   30        6.297143   0.000000
   31        6.808100   0.000000
   32        6.873287   0.000000
   33        7.266930   0.000000
   34        7.761346   0.000000
   35        8.301647   0.000000
 
  0.0000000E+00  0.1666667E+00  0.0000000E+00  0.9259259E-02
    1      -35.849666   1.000000
    2      -35.842591   1.000000
    3      -17.063286   1.000000
    4      -16.947424   1.000000
    5      -16.876179   1.000000
    6      -16.855113   1.000000
    7      -16.791505   1.000000
    8      -16.782813   1.000000
    9       -8.437936   1.000000
   10       -7.716410   1.000000
   11       -1.809100   1.000000
   12       -1.646536   1.000000
   13       -1.178371   1.000000
   14        0.136590   1.000000
   15        0.322998   1.000000
   16        1.298140   1.000000
   17        1.388108   1.000000
   18        2.372829   1.000000
   19        3.497364   1.000000
   20        3.908566   1.000000
   21        3.921617   1.000000
   22        4.300481   1.000000
   23        4.313348   1.000000
   24        4.481834   1.000000
   25        4.609780   1.000000
   26        5.022546   0.629567
   27        5.206070   0.000000
   28        5.890609   0.000000
   29        6.462237   0.000000
   30        6.842322   0.000000
   31        7.474533   0.000000
   32        7.870815   0.000000
   33        8.123068   0.000000
   34        8.532020   0.000000
   35        8.662940   0.000000
 
  0.1111111E+00  0.1666667E+00  0.0000000E+00  0.1851852E-01
    1      -35.848484   1.000000
    2      -35.841445   1.000000
    3      -17.061204   1.000000
    4      -16.946026   1.000000
    5      -16.874305   1.000000
    6      -16.853488   1.000000
    7      -16.808366   1.000000
    8      -16.799073   1.000000
    9       -8.340352   1.000000
   10       -7.647360   1.000000
   11       -1.974111   1.000000
   12       -1.840539   1.000000
   13       -1.679285   1.000000
   14        0.248922   1.000000
   15        0.435500   1.000000
   16        1.416848   1.000000
   17        1.888426   1.000000
   18        2.326995   1.000000
   19        3.603651   1.000000
   20        3.938348   1.000000
   21        3.974095   1.000000
   22        4.333269   1.000000
   23        4.429832   1.000000
   24        4.562678   1.000000
   25        4.596635   1.000000
   26        5.047029   0.000869
   27        5.247311   0.000000
   28        6.086996   0.000000
   29        6.535695   0.000000
   30        6.831187   0.000000
   31        7.347012   0.000000
   32        7.445502   0.000000
   33        7.564424   0.000000
   34        8.326974   0.000000
   35        8.548855   0.000000
 
  0.2222222E+00  0.1666667E+00  0.0000000E+00  0.1851852E-01
    1      -35.845476   1.000000
    2      -35.838477   1.000000
    3      -17.055903   1.000000
    4      -16.942463   1.000000
    5      -16.869700   1.000000
    6      -16.850612   1.000000
    7      -16.849576   1.000000
    8      -16.839696   1.000000
    9       -8.057221   1.000000
   10       -7.452174   1.000000
   11       -3.003475   1.000000
   12       -2.708760   1.000000
   13       -1.297160   1.000000
   14        0.581425   1.000000
   15        0.759160   1.000000
   16        1.491939   1.000000
   17        2.141921   1.000000
   18        2.824203   1.000000
   19        3.861226   1.000000
   20        3.986429   1.000000
   21        4.115980   1.000000
   22        4.265264   1.000000
   23        4.385558   1.000000
   24        4.530734   1.000000
   25        4.566210   1.000000
   26        4.884114   1.000000
   27        5.728273   0.000000
   28        6.257001   0.000000
   29        6.790449   0.000000
   30        6.839890   0.000000
   31        6.846466   0.000000
   32        6.873521   0.000000
   33        7.074466   0.000000
   34        7.846541   0.000000
   35        8.097369   0.000000
 
  0.3333333E+00  0.1666667E+00  0.0000000E+00  0.1851852E-01
    1      -35.842067   1.000000
    2      -35.835110   1.000000
    3      -17.049852   1.000000
    4      -16.938407   1.000000
    5      -16.898696   1.000000
    6      -16.886131   1.000000
    7      -16.863888   1.000000
    8      -16.844435   1.000000
    9       -7.630631   1.000000
   10       -7.178611   1.000000
   11       -4.104825   1.000000
   12       -3.473327   1.000000
   13       -0.687233   1.000000
   14        1.124410   1.000000
   15        1.260708   1.000000
   16        1.581795   1.000000
   17        1.697203   1.000000
   18        3.584259   1.000000
   19        3.697181   1.000000
   20        3.816464   1.000000
   21        4.053924   1.000000
   22        4.227025   1.000000
   23        4.264571   1.000000
   24        4.450564   1.000000
   25        4.511605   1.000000
   26        4.973517   1.000000
   27        5.375007   0.000000
   28        5.556046   0.000000
   29        6.698398   0.000000
   30        6.851085   0.000000
   31        6.879491   0.000000
   32        7.196982   0.000000
   33        7.500431   0.000000
   34        7.627341   0.000000
   35        7.841126   0.000000
 
  0.4444444E+00  0.1666667E+00  0.0000000E+00  0.1851852E-01
    1      -35.839840   1.000000
    2      -35.832917   1.000000
    3      -17.045893   1.000000
    4      -16.935762   1.000000
    5      -16.929506   1.000000
    6      -16.915925   1.000000
    7      -16.860408   1.000000
    8      -16.841363   1.000000
    9       -7.214338   1.000000
   10       -6.949310   1.000000
   11       -4.874578   1.000000
   12       -3.978186   1.000000
   13        0.098890   1.000000
   14        0.958779   1.000000
   15        1.643302   1.000000
   16        1.810744   1.000000
   17        1.857448   1.000000
   18        2.751377   1.000000
   19        3.261701   1.000000
   20        3.985587   1.000000
   21        4.107765   1.000000
   22        4.283050   1.000000
   23        4.407799   1.000000
   24        4.499147   1.000000
   25        4.649906   1.000000
   26        4.982093   1.000000
   27        5.020695   0.723267
   28        5.257284   0.000000
   29        6.530108   0.000000
   30        6.751858   0.000000
   31        6.937067   0.000000
   32        6.944940   0.000000
   33        7.114414   0.000000
   34        8.250411   0.000000
   35        8.327986   0.000000
 
  0.0000000E+00  0.3333333E+00  0.0000000E+00  0.9259259E-02
    1      -35.849242   1.000000
    2      -35.842209   1.000000
    3      -17.058675   1.000000
    4      -16.946439   1.000000
    5      -16.896124   1.000000
    6      -16.868408   1.000000
    7      -16.791818   1.000000
    8      -16.783318   1.000000
    9       -8.326939   1.000000
   10       -7.739290   1.000000
   11       -1.628393   1.000000
   12       -1.592726   1.000000
   13       -1.188335   1.000000
   14       -0.347445   1.000000
   15        0.037252   1.000000
   16        1.281515   1.000000
   17        1.408527   1.000000
   18        2.468487   1.000000
   19        3.933404   1.000000
   20        4.206965   1.000000
   21        4.258032   1.000000
   22        4.273610   1.000000
   23        4.347840   1.000000
   24        4.649753   1.000000
   25        4.767756   1.000000
   26        5.193983   0.000000
   27        5.333028   0.000000
   28        5.653176   0.000000
   29        5.893118   0.000000
   30        6.637151   0.000000
   31        7.243315   0.000000
   32        8.015232   0.000000
   33        8.157885   0.000000
   34        8.176222   0.000000
   35        8.579110   0.000000
 
  0.1111111E+00  0.3333333E+00  0.0000000E+00  0.1851852E-01
    1      -35.848081   1.000000
    2      -35.841077   1.000000
    3      -17.056627   1.000000
    4      -16.945035   1.000000
    5      -16.893434   1.000000
    6      -16.866136   1.000000
    7      -16.808284   1.000000
    8      -16.799176   1.000000
    9       -8.231213   1.000000
   10       -7.670576   1.000000
   11       -1.951641   1.000000
   12       -1.833596   1.000000
   13       -1.468781   1.000000
   14       -0.229000   1.000000
   15        0.144758   1.000000
   16        1.310768   1.000000
   17        1.988329   1.000000
   18        2.425191   1.000000
   19        3.955148   1.000000
   20        4.224999   1.000000
   21        4.278939   1.000000
   22        4.355743   1.000000
   23        4.536975   1.000000
   24        4.560065   1.000000
   25        4.741240   1.000000
   26        5.029622   0.251436
   27        5.529427   0.000000
   28        5.727375   0.000000
   29        6.067955   0.000000
   30        6.638915   0.000000
   31        7.240819   0.000000
   32        7.253048   0.000000
   33        7.702321   0.000000
   34        8.395374   0.000000
   35        8.626753   0.000000
 
  0.2222222E+00  0.3333333E+00  0.0000000E+00  0.1851852E-01
    1      -35.845146   1.000000
    2      -35.838185   1.000000
    3      -17.051432   1.000000
    4      -16.941424   1.000000
    5      -16.886682   1.000000
    6      -16.860441   1.000000
    7      -16.849592   1.000000
    8      -16.839040   1.000000
    9       -7.952501   1.000000
   10       -7.476929   1.000000
   11       -2.985839   1.000000
   12       -2.677317   1.000000
   13       -1.103343   1.000000
   14        0.114023   1.000000
   15        0.462979   1.000000
   16        1.386819   1.000000
   17        2.250005   1.000000
   18        2.925958   1.000000
   19        4.019987   1.000000
   20        4.195626   1.000000
   21        4.213334   1.000000
   22        4.376517   1.000000
   23        4.397478   1.000000
   24        4.479966   1.000000
   25        4.650999   1.000000
   26        4.878391   1.000000
   27        5.655183   0.000000
   28        5.945636   0.000000
   29        6.207402   0.000000
   30        6.729126   0.000000
   31        6.839737   0.000000
   32        7.107824   0.000000
   33        7.417311   0.000000
   34        8.018370   0.000000
   35        8.269948   0.000000
 
  0.3333333E+00  0.3333333E+00  0.0000000E+00  0.1851852E-01
    1      -35.841806   1.000000
    2      -35.834908   1.000000
    3      -17.045506   1.000000
    4      -16.937335   1.000000
    5      -16.896529   1.000000
    6      -16.884304   1.000000
    7      -16.878568   1.000000
    8      -16.853623   1.000000
    9       -7.529341   1.000000
   10       -7.207306   1.000000
   11       -4.085351   1.000000
   12       -3.431793   1.000000
   13       -0.518380   1.000000
   14        0.640879   1.000000
   15        0.981635   1.000000
   16        1.476846   1.000000
   17        1.822221   1.000000
   18        3.593290   1.000000
   19        3.605647   1.000000
   20        3.714679   1.000000
   21        4.115019   1.000000
   22        4.152417   1.000000
   23        4.405795   1.000000
   24        4.444251   1.000000
   25        4.477746   1.000000
   26        4.983965   1.000000
   27        5.265906   0.000000
   28        5.295751   0.000000
   29        6.640537   0.000000
   30        6.765534   0.000000
   31        7.375260   0.000000
   32        7.486045   0.000000
   33        7.585651   0.000000
   34        7.616336   0.000000
   35        8.197157   0.000000
 
  0.4444444E+00  0.3333333E+00  0.0000000E+00  0.1851852E-01
    1      -35.839628   1.000000
    2      -35.832779   1.000000
    3      -17.041634   1.000000
    4      -16.934667   1.000000
    5      -16.926533   1.000000
    6      -16.913399   1.000000
    7      -16.873672   1.000000
    8      -16.849371   1.000000
    9       -7.110341   1.000000
   10       -6.983496   1.000000
   11       -4.859997   1.000000
   12       -3.927829   1.000000
   13        0.231040   1.000000
   14        1.111062   1.000000
   15        1.200958   1.000000
   16        1.537616   1.000000
   17        1.658017   1.000000
   18        2.680450   1.000000
   19        2.959576   1.000000
   20        3.986518   1.000000
   21        4.120434   1.000000
   22        4.191530   1.000000
   23        4.217962   1.000000
   24        4.435758   1.000000
   25        4.730277   1.000000
   26        4.998798   0.999888
   27        5.015870   0.898835
   28        5.032188   0.150833
   29        6.649933   0.000000
   30        6.954508   0.000000
   31        7.126465   0.000000
   32        7.165215   0.000000
   33        7.989884   0.000000
   34        8.092327   0.000000
   35        8.450604   0.000000
 
  0.0000000E+00  0.5000000E+00  0.0000000E+00  0.4629630E-02
    1      -35.849018   1.000000
    2      -35.842019   1.000000
    3      -17.056386   1.000000
    4      -16.945965   1.000000
    5      -16.906018   1.000000
    6      -16.875036   1.000000
    7      -16.791997   1.000000
    8      -16.783556   1.000000
    9       -8.269517   1.000000
   10       -7.750752   1.000000
   11       -1.619280   1.000000
   12       -1.477092   1.000000
   13       -1.193265   1.000000
   14       -0.618198   1.000000
   15       -0.008675   1.000000
   16        1.230954   1.000000
   17        1.463992   1.000000
   18        2.532427   1.000000
   19        3.939285   1.000000
   20        4.253538   1.000000
   21        4.362728   1.000000
   22        4.599497   1.000000
   23        4.723982   1.000000
   24        4.741346   1.000000
   25        4.859575   1.000000
   26        4.890700   1.000000
   27        5.186842   0.000000
   28        5.678298   0.000000
   29        5.857362   0.000000
   30        5.894494   0.000000
   31        7.538859   0.000000
   32        7.849510   0.000000
   33        7.926776   0.000000
   34        8.433258   0.000000
   35        8.775629   0.000000
 
  0.1111111E+00  0.5000000E+00  0.0000000E+00  0.9259259E-02
    1      -35.847872   1.000000
    2      -35.840892   1.000000
    3      -17.054370   1.000000
    4      -16.944544   1.000000
    5      -16.902911   1.000000
    6      -16.872415   1.000000
    7      -16.808245   1.000000
    8      -16.799235   1.000000
    9       -8.174767   1.000000
   10       -7.682209   1.000000
   11       -1.939832   1.000000
   12       -1.829946   1.000000
   13       -1.356514   1.000000
   14       -0.498304   1.000000
   15        0.095120   1.000000
   16        1.260391   1.000000
   17        2.037294   1.000000
   18        2.490753   1.000000
   19        3.963851   1.000000
   20        4.364602   1.000000
   21        4.455918   1.000000
   22        4.519903   1.000000
   23        4.611399   1.000000
   24        4.686516   1.000000
   25        4.832144   1.000000
   26        5.020009   0.754749
   27        5.128284   0.000000
   28        5.678970   0.000000
   29        6.056318   0.000000
   30        6.126820   0.000000
   31        7.171089   0.000000
   32        7.622783   0.000000
   33        7.832726   0.000000
   34        8.079442   0.000000
   35        8.621624   0.000000
 
  0.2222222E+00  0.5000000E+00  0.0000000E+00  0.9259259E-02
    1      -35.844960   1.000000
    2      -35.838053   1.000000
    3      -17.049197   1.000000
    4      -16.940905   1.000000
    5      -16.895049   1.000000
    6      -16.865812   1.000000
    7      -16.849143   1.000000
    8      -16.838750   1.000000
    9       -7.898407   1.000000
   10       -7.489319   1.000000
   11       -2.976732   1.000000
   12       -2.660645   1.000000
   13       -1.000725   1.000000
   14       -0.150018   1.000000
   15        0.404189   1.000000
   16        1.336704   1.000000
   17        2.321989   1.000000
   18        2.973246   1.000000
   19        4.038766   1.000000
   20        4.223628   1.000000
   21        4.253235   1.000000
   22        4.368720   1.000000
   23        4.459098   1.000000
   24        4.594937   1.000000
   25        4.659593   1.000000
   26        4.873933   1.000000
   27        5.492156   0.000000
   28        5.723588   0.000000
   29        6.054761   0.000000
   30        6.678319   0.000000
   31        6.884003   0.000000
   32        7.109988   0.000000
   33        8.015477   0.000000
   34        8.459302   0.000000
   35        8.982436   0.000000
 
  0.3333333E+00  0.5000000E+00  0.0000000E+00  0.9259259E-02
    1      -35.841675   1.000000
    2      -35.834820   1.000000
    3      -17.043320   1.000000
    4      -16.936803   1.000000
    5      -16.895208   1.000000
    6      -16.886111   1.000000
    7      -16.883319   1.000000
    8      -16.858290   1.000000
    9       -7.477040   1.000000
   10       -7.221653   1.000000
   11       -4.075321   1.000000
   12       -3.410003   1.000000
   13       -0.431781   1.000000
   14        0.382949   1.000000
   15        0.907619   1.000000
   16        1.426582   1.000000
   17        1.907147   1.000000
   18        3.548140   1.000000
   19        3.573384   1.000000
   20        3.698748   1.000000
   21        4.081157   1.000000
   22        4.156280   1.000000
   23        4.372309   1.000000
   24        4.377482   1.000000
   25        4.571201   1.000000
   26        4.988844   1.000000
   27        5.149863   0.000000
   28        5.301155   0.000000
   29        6.532399   0.000000
   30        6.748896   0.000000
   31        7.344121   0.000000
   32        7.459057   0.000000
   33        7.667033   0.000000
   34        8.263699   0.000000
   35        8.329127   0.000000
 
  0.4444444E+00  0.5000000E+00  0.0000000E+00  0.9259259E-02
    1      -35.839507   1.000000
    2      -35.832724   1.000000
    3      -17.039499   1.000000
    4      -16.934090   1.000000
    5      -16.925015   1.000000
    6      -16.912144   1.000000
    7      -16.880263   1.000000
    8      -16.853362   1.000000
    9       -7.056580   1.000000
   10       -7.000503   1.000000
   11       -4.852497   1.000000
   12       -3.901717   1.000000
   13        0.282780   1.000000
   14        0.942292   1.000000
   15        1.226926   1.000000
   16        1.487145   1.000000
   17        1.545602   1.000000
   18        2.672350   1.000000
   19        2.829826   1.000000
   20        3.973700   1.000000
   21        3.983999   1.000000
   22        4.145020   1.000000
   23        4.263720   1.000000
   24        4.374240   1.000000
   25        4.764973   1.000000
   26        4.958533   1.000000
   27        5.006800   0.994731
   28        5.028758   0.291926
   29        6.621839   0.000000
   30        6.903580   0.000000
   31        7.267681   0.000000
   32        7.525606   0.000000
   33        7.845716   0.000000
   34        8.430366   0.000000
   35        8.641164   0.000000
 
  0.0000000E+00  0.1540744E-32  0.2500000E+00  0.9259259E-02
    1      -35.848849   1.000000
    2      -35.843844   1.000000
    3      -17.048647   1.000000
    4      -16.965441   1.000000
    5      -16.863550   1.000000
    6      -16.851044   1.000000
    7      -16.790076   1.000000
    8      -16.783881   1.000000
    9       -8.395014   1.000000
   10       -7.844225   1.000000
   11       -1.593709   1.000000
   12       -1.527826   1.000000
   13       -1.254585   1.000000
   14        0.267139   1.000000
   15        0.700555   1.000000
   16        0.704121   1.000000
   17        1.359486   1.000000
   18        2.088152   1.000000
   19        3.147524   1.000000
   20        3.637485   1.000000
   21        4.153655   1.000000
   22        4.423432   1.000000
   23        4.462536   1.000000
   24        4.519834   1.000000
   25        4.742999   1.000000
   26        5.118610   0.000000
   27        5.248012   0.000000
   28        5.508949   0.000000
   29        6.287519   0.000000
   30        6.912119   0.000000
   31        7.705266   0.000000
   32        7.879440   0.000000
   33        8.171711   0.000000
   34        8.226787   0.000000
   35        8.717001   0.000000
 
  0.1111111E+00  0.1078521E-31  0.2500000E+00  0.1851852E-01
    1      -35.847653   1.000000
    2      -35.842648   1.000000
    3      -17.046620   1.000000
    4      -16.963922   1.000000
    5      -16.862082   1.000000
    6      -16.849683   1.000000
    7      -16.807073   1.000000
    8      -16.800417   1.000000
    9       -8.299447   1.000000
   10       -7.768639   1.000000
   11       -1.987965   1.000000
   12       -1.869293   1.000000
   13       -1.375275   1.000000
   14        0.379284   1.000000
   15        0.778697   1.000000
   16        0.803939   1.000000
   17        1.884840   1.000000
   18        2.159044   1.000000
   19        3.274605   1.000000
   20        3.741587   1.000000
   21        4.106943   1.000000
   22        4.324997   1.000000
   23        4.485467   1.000000
   24        4.545198   1.000000
   25        4.859411   1.000000
   26        5.032548   0.139245
   27        5.467994   0.000000
   28        5.707930   0.000000
   29        6.375781   0.000000
   30        6.928342   0.000000
   31        7.497039   0.000000
   32        7.583687   0.000000
   33        7.758475   0.000000
   34        8.193399   0.000000
   35        8.595117   0.000000
 
  0.2222222E+00  0.1078521E-31  0.2500000E+00  0.1851852E-01
    1      -35.844614   1.000000
    2      -35.839640   1.000000
    3      -17.041482   1.000000
    4      -16.960065   1.000000
    5      -16.858351   1.000000
    6      -16.849771   1.000000
    7      -16.846239   1.000000
    8      -16.842015   1.000000
    9       -8.023198   1.000000
   10       -7.553748   1.000000
   11       -2.982959   1.000000
   12       -2.793818   1.000000
   13       -1.002836   1.000000
   14        0.712611   1.000000
   15        0.979368   1.000000
   16        1.109166   1.000000
   17        2.151901   1.000000
   18        2.684457   1.000000
   19        3.599537   1.000000
   20        3.969640   1.000000
   21        4.067337   1.000000
   22        4.143577   1.000000
   23        4.307132   1.000000
   24        4.648921   1.000000
   25        4.800253   1.000000
   26        4.925040   1.000000
   27        5.907270   0.000000
   28        6.157171   0.000000
   29        6.747305   0.000000
   30        6.759679   0.000000
   31        6.969456   0.000000
   32        6.994584   0.000000
   33        7.071676   0.000000
   34        7.840101   0.000000
   35        8.141798   0.000000
 
  0.3333333E+00  0.2311116E-31  0.2500000E+00  0.1851852E-01
    1      -35.841176   1.000000
    2      -35.836237   1.000000
    3      -17.035667   1.000000
    4      -16.955710   1.000000
    5      -16.897850   1.000000
    6      -16.888857   1.000000
    7      -16.854134   1.000000
    8      -16.842326   1.000000
    9       -7.611276   1.000000
   10       -7.247772   1.000000
   11       -4.046402   1.000000
   12       -3.620222   1.000000
   13       -0.418806   1.000000
   14        1.241850   1.000000
   15        1.256082   1.000000
   16        1.595249   1.000000
   17        1.838854   1.000000
   18        3.173276   1.000000
   19        3.722170   1.000000
   20        3.794152   1.000000
   21        3.877641   1.000000
   22        4.185681   1.000000
   23        4.308687   1.000000
   24        4.645869   1.000000
   25        4.756501   1.000000
   26        4.911448   1.000000
   27        5.606025   0.000000
   28        5.833619   0.000000
   29        6.153628   0.000000
   30        6.533758   0.000000
   31        6.927426   0.000000
   32        7.034417   0.000000
   33        7.448933   0.000000
   34        7.712686   0.000000
   35        8.031766   0.000000
 
  0.4444444E+00  0.2311116E-31  0.2500000E+00  0.1851852E-01
    1      -35.838924   1.000000
    2      -35.834011   1.000000
    3      -17.031834   1.000000
    4      -16.952863   1.000000
    5      -16.928947   1.000000
    6      -16.919179   1.000000
    7      -16.851355   1.000000
    8      -16.839766   1.000000
    9       -7.218475   1.000000
   10       -6.983520   1.000000
   11       -4.781921   1.000000
   12       -4.172440   1.000000
   13        0.299115   1.000000
   14        1.220167   1.000000
   15        1.444143   1.000000