   12   12   10    1
  0.1527438E+02  0.3416010E-09  0.7366590E-09  0.7283820E-09  0.1000000E-15
  1.000000000000000E-004
  CAR 
 DFT routine                             
     84     45     50
 
  0.0000000E+00  0.0000000E+00  0.0000000E+00  0.6944444E-02
    1      -36.888832   1.000000
    2      -36.881745   1.000000
    3      -36.881526   1.000000
    4      -36.874817   1.000000
    5      -18.043647   1.000000
    6      -18.036654   1.000000
    7      -18.026149   1.000000
    8      -18.016138   1.000000
    9      -17.929844   1.000000
   10      -17.920420   1.000000
   11      -17.901847   1.000000
   12      -17.892632   1.000000
   13      -17.854307   1.000000
   14      -17.846060   1.000000
   15      -17.838946   1.000000
   16      -17.829676   1.000000
   17       -4.945894   1.000000
   18       -3.858967   1.000000
   19       -3.353612   1.000000
   20       -2.155622   1.000000
   21       -0.969503   1.000000
   22       -0.839434   1.000000
   23       -0.213852   1.000000
   24       -0.000547   1.000000
   25        0.764323   1.000000
   26        1.085306   1.000000
   27        1.181370   1.000000
   28        1.186332   1.000000
   29        1.443423   1.000000
   30        1.568312   1.000000
   31        1.752028   1.000000
   32        1.882289   1.000000
   33        2.187773   1.000000
   34        2.240555   1.000000
   35        2.281706   1.000000
   36        2.397885   1.000000
   37        2.459020   1.000000
   38        2.587745   1.000000
   39        2.682433   0.837693
   40        2.754840   0.000000
   41        2.837818   0.000000
   42        2.967909   0.000000
   43        3.025057   0.000000
   44        3.192239   0.000000
   45        3.371465   0.000000
   46        3.483069   0.000000
   47        3.887409   0.000000
   48        3.895828   0.000000
   49        4.644026   0.000000
   50        4.750700   0.000000
 
  0.1111111E+00  0.0000000E+00  0.0000000E+00  0.1388889E-01
    1      -36.886646   1.000000
    2      -36.879598   1.000000
    3      -36.879386   1.000000
    4      -36.872670   1.000000
    5      -18.039819   1.000000
    6      -18.030843   1.000000
    7      -18.023044   1.000000
    8      -18.011338   1.000000
    9      -17.927297   1.000000
   10      -17.917891   1.000000
   11      -17.898220   1.000000
   12      -17.888838   1.000000
   13      -17.884025   1.000000
   14      -17.874277   1.000000
   15      -17.866700   1.000000
   16      -17.856963   1.000000
   17       -4.824085   1.000000
   18       -3.849862   1.000000
   19       -3.233230   1.000000
   20       -2.164425   1.000000
   21       -0.930656   1.000000
   22       -0.771607   1.000000
   23       -0.109692   1.000000
   24        0.157055   1.000000
   25        0.803991   1.000000
   26        1.010454   1.000000
   27        1.123199   1.000000
   28        1.247555   1.000000
   29        1.296702   1.000000
   30        1.659830   1.000000
   31        1.748961   1.000000
   32        1.875292   1.000000
   33        2.171425   1.000000
   34        2.258009   1.000000
   35        2.294467   1.000000
   36        2.347696   1.000000
   37        2.379859   1.000000
   38        2.535630   1.000000
   39        2.600139   1.000000
   40        2.726503   0.000000
   41        2.774882   0.000000
   42        2.959014   0.000000
   43        3.034549   0.000000
   44        3.320619   0.000000
   45        3.348243   0.000000
   46        3.484246   0.000000
   47        3.675556   0.000000
   48        3.879849   0.000000
   49        4.181314   0.000000
   50        4.737189   0.000000
 
  0.2222222E+00  0.0000000E+00  0.0000000E+00  0.1388889E-01
    1      -36.881125   1.000000
    2      -36.874165   1.000000
    3      -36.874015   1.000000
    4      -36.867311   1.000000
    5      -18.030110   1.000000
    6      -18.016402   1.000000
    7      -18.015249   1.000000
    8      -17.999497   1.000000
    9      -17.958045   1.000000
   10      -17.944612   1.000000
   11      -17.938698   1.000000
   12      -17.927884   1.000000
   13      -17.920897   1.000000
   14      -17.911431   1.000000
   15      -17.886541   1.000000
   16      -17.876786   1.000000
   17       -4.487247   1.000000
   18       -3.828465   1.000000
   19       -2.894381   1.000000
   20       -2.187253   1.000000
   21       -0.837755   1.000000
   22       -0.602323   1.000000
   23        0.152757   1.000000
   24        0.585674   1.000000
   25        0.825134   1.000000
   26        0.828961   1.000000
   27        0.892266   1.000000
   28        0.976274   1.000000
   29        1.411934   1.000000
   30        1.722522   1.000000
   31        1.810859   1.000000
   32        1.955366   1.000000
   33        2.129431   1.000000
   34        2.196105   1.000000
   35        2.289239   1.000000
   36        2.326340   1.000000
   37        2.349411   1.000000
   38        2.417086   1.000000
   39        2.421022   1.000000
   40        2.631180   1.000000
   41        2.656036   0.999999
   42        2.944191   0.000000
   43        3.061599   0.000000
   44        3.214405   0.000000
   45        3.230110   0.000000
   46        3.470357   0.000000
   47        3.490956   0.000000
   48        3.680182   0.000000
   49        3.839474   0.000000
   50        5.011634   0.000000
 
  0.3333333E+00  0.0000000E+00  0.0000000E+00  0.1388889E-01
    1      -36.874865   1.000000
    2      -36.867978   1.000000
    3      -36.867910   1.000000
    4      -36.861190   1.000000
    5      -18.042921   1.000000
    6      -18.025556   1.000000
    7      -18.019024   1.000000
    8      -18.017342   1.000000
    9      -18.006336   1.000000
   10      -18.005308   1.000000
   11      -17.997666   1.000000
   12      -17.983629   1.000000
   13      -17.913612   1.000000
   14      -17.904058   1.000000
   15      -17.875095   1.000000
   16      -17.864953   1.000000
   17       -4.031052   1.000000
   18       -3.806777   1.000000
   19       -2.408960   1.000000
   20       -2.211677   1.000000
   21       -0.743024   1.000000
   22       -0.417700   1.000000
   23        0.326667   1.000000
   24        0.447250   1.000000
   25        0.543513   1.000000
   26        0.623399   1.000000
   27        0.809465   1.000000
   28        1.154638   1.000000
   29        1.584685   1.000000
   30        1.663033   1.000000
   31        1.792980   1.000000
   32        2.069390   1.000000
   33        2.080205   1.000000
   34        2.205725   1.000000
   35        2.227745   1.000000
   36        2.300230   1.000000
   37        2.364244   1.000000
   38        2.488252   1.000000
   39        2.488288   1.000000
   40        2.578280   1.000000
   41        2.642210   1.000000
   42        2.791249   0.000000
   43        2.932326   0.000000
   44        3.117686   0.000000
   45        3.194798   0.000000
   46        3.227375   0.000000
   47        3.439373   0.000000
   48        3.747985   0.000000
   49        4.047320   0.000000
   50        4.997297   0.000000
 
  0.4444444E+00  0.0000000E+00  0.0000000E+00  0.1388889E-01
    1      -36.870741   1.000000
    2      -36.863937   1.000000
    3      -36.863905   1.000000
    4      -36.857171   1.000000
    5      -18.095718   1.000000
    6      -18.075841   1.000000
    7      -18.068109   1.000000
    8      -18.055292   1.000000
    9      -18.011755   1.000000
   10      -18.000534   1.000000
   11      -17.987078   1.000000
   12      -17.975017   1.000000
   13      -17.908826   1.000000
   14      -17.899243   1.000000
   15      -17.867449   1.000000
   16      -17.857012   1.000000
   17       -3.796737   1.000000
   18       -3.656963   1.000000
   19       -2.237703   1.000000
   20       -1.937180   1.000000
   21       -0.687996   1.000000
   22       -0.304305   1.000000
   23       -0.190986   1.000000
   24        0.118385   1.000000
   25        0.496391   1.000000
   26        0.636144   1.000000
   27        0.701787   1.000000
   28        1.611852   1.000000
   29        1.664532   1.000000
   30        1.666251   1.000000
   31        1.887668   1.000000
   32        2.002199   1.000000
   33        2.020659   1.000000
   34        2.047439   1.000000
   35        2.156147   1.000000
   36        2.231619   1.000000
   37        2.389183   1.000000
   38        2.404002   1.000000
   39        2.523863   1.000000
   40        2.557252   1.000000
   41        2.916465   0.000000
   42        2.955570   0.000000
   43        3.194669   0.000000
   44        3.218797   0.000000
   45        3.236369   0.000000
   46        3.410323   0.000000
   47        3.499419   0.000000
   48        3.682574   0.000000
   49        4.293068   0.000000
   50        4.389575   0.000000
 
  0.0000000E+00  0.2500000E+00  0.0000000E+00  0.1388889E-01
    1      -36.887771   1.000000
    2      -36.882779   1.000000
    3      -36.880554   1.000000
    4      -36.875797   1.000000
    5      -18.041106   1.000000
    6      -18.028702   1.000000
    7      -18.017197   1.000000
    8      -17.998292   1.000000
    9      -17.928448   1.000000
   10      -17.921878   1.000000
   11      -17.921812   1.000000
   12      -17.910970   1.000000
   13      -17.852069   1.000000
   14      -17.843682   1.000000
   15      -17.841238   1.000000
   16      -17.832076   1.000000
   17       -4.817466   1.000000
   18       -4.062592   1.000000
   19       -3.223705   1.000000
   20       -2.410538   1.000000
   21       -0.947043   1.000000
   22       -0.854948   1.000000
   23        0.068978   1.000000
   24        0.260746   1.000000
   25        0.777948   1.000000
   26        1.020541   1.000000
   27        1.137460   1.000000
   28        1.244526   1.000000
   29        1.390141   1.000000
   30        1.524372   1.000000
   31        1.708997   1.000000
   32        1.846074   1.000000
   33        2.200932   1.000000
   34        2.258086   1.000000
   35        2.269545   1.000000
   36        2.406897   1.000000
   37        2.450030   1.000000
   38        2.621294   1.000000
   39        2.678331   0.941221
   40        2.688376   0.557463
   41        2.741153   0.000000
   42        2.797582   0.000000
   43        2.939989   0.000000
   44        3.234873   0.000000
   45        3.439261   0.000000
   46        3.482455   0.000000
   47        3.522995   0.000000
   48        4.442324   0.000000
   49        4.457253   0.000000
   50        4.757538   0.000000
 
  0.1111111E+00  0.2500000E+00  0.0000000E+00  0.2777778E-01
    1      -36.885618   1.000000
    2      -36.880618   1.000000
    3      -36.878412   1.000000
    4      -36.873685   1.000000
    5      -18.037381   1.000000
    6      -18.025507   1.000000
    7      -18.011686   1.000000
    8      -17.993623   1.000000
    9      -17.925920   1.000000
   10      -17.919270   1.000000
   11      -17.917901   1.000000
   12      -17.906928   1.000000
   13      -17.881459   1.000000
   14      -17.871789   1.000000
   15      -17.869384   1.000000
   16      -17.859664   1.000000
   17       -4.705624   1.000000
   18       -4.025943   1.000000
   19       -3.112172   1.000000
   20       -2.379091   1.000000
   21       -0.903991   1.000000
   22       -0.791416   1.000000
   23        0.123784   1.000000
   24        0.371993   1.000000
   25        0.810747   1.000000
   26        0.969896   1.000000
   27        1.054493   1.000000
   28        1.258849   1.000000
   29        1.310329   1.000000
   30        1.614427   1.000000
   31        1.723456   1.000000
   32        1.853753   1.000000
   33        2.186286   1.000000
   34        2.267337   1.000000
   35        2.276058   1.000000
   36        2.359008   1.000000
   37        2.381006   1.000000
   38        2.563262   1.000000
   39        2.615831   1.000000
   40        2.681553   0.866365
   41        2.706337   0.008299
   42        2.737523   0.000000
   43        2.924478   0.000000
   44        3.342272   0.000000
   45        3.367289   0.000000
   46        3.436207   0.000000
   47        3.462369   0.000000
   48        4.047493   0.000000
   49        4.449248   0.000000
   50        4.844633   0.000000
 
  0.2222222E+00  0.2500000E+00  0.0000000E+00  0.2777778E-01
    1      -36.880104   1.000000
    2      -36.875175   1.000000
    3      -36.873041   1.000000
    4      -36.868323   1.000000
    5      -18.027923   1.000000
    6      -18.017430   1.000000
    7      -17.998209   1.000000
    8      -17.982261   1.000000
    9      -17.955052   1.000000
   10      -17.941809   1.000000
   11      -17.941793   1.000000
   12      -17.930765   1.000000
   13      -17.919515   1.000000
   14      -17.912812   1.000000
   15      -17.905184   1.000000
   16      -17.894510   1.000000
   17       -4.399259   1.000000
   18       -3.935225   1.000000
   19       -2.801914   1.000000
   20       -2.305490   1.000000
   21       -0.800186   1.000000
   22       -0.633403   1.000000
   23        0.263048   1.000000
   24        0.663548   1.000000
   25        0.772949   1.000000
   26        0.829931   1.000000
   27        0.853643   1.000000
   28        0.967973   1.000000
   29        1.490104   1.000000
   30        1.736463   1.000000
   31        1.822587   1.000000
   32        1.904076   1.000000
   33        2.146622   1.000000
   34        2.216811   1.000000
   35        2.259616   1.000000
   36        2.314690   1.000000
   37        2.349258   1.000000
   38        2.443199   1.000000
   39        2.452324   1.000000
   40        2.599217   1.000000
   41        2.618878   1.000000
   42        2.672630   0.991139
   43        2.900227   0.000000
   44        3.020607   0.000000
   45        3.280879   0.000000
   46        3.504191   0.000000
   47        3.504362   0.000000
   48        3.656183   0.000000
   49        4.436114   0.000000
   50        5.075342   0.000000
 
  0.3333333E+00  0.2500000E+00  0.0000000E+00  0.2777778E-01
    1      -36.873858   1.000000
    2      -36.868994   1.000000
    3      -36.866923   1.000000
    4      -36.862188   1.000000
    5      -18.039061   1.000000
    6      -18.022424   1.000000
    7      -18.021190   1.000000
    8      -18.017171   1.000000
    9      -18.008242   1.000000
   10      -18.008213   1.000000
   11      -17.979976   1.000000
   12      -17.966657   1.000000
   13      -17.912214   1.000000
   14      -17.905467   1.000000
   15      -17.893350   1.000000
   16      -17.882646   1.000000
   17       -3.994329   1.000000
   18       -3.835506   1.000000
   19       -2.369897   1.000000
   20       -2.229773   1.000000
   21       -0.692758   1.000000
   22       -0.462083   1.000000
   23        0.319363   1.000000
   24        0.392692   1.000000
   25        0.603316   1.000000
   26        0.669667   1.000000
   27        0.789719   1.000000
   28        1.003336   1.000000
   29        1.680624   1.000000
   30        1.737596   1.000000
   31        1.794833   1.000000
   32        2.082265   1.000000
   33        2.118175   1.000000
   34        2.185016   1.000000
   35        2.268459   1.000000
   36        2.312948   1.000000
   37        2.318526   1.000000
   38        2.433270   1.000000
   39        2.460303   1.000000
   40        2.518953   1.000000
   41        2.627826   1.000000
   42        2.662742   0.999918
   43        2.783126   0.000000
   44        2.906543   0.000000
   45        3.196922   0.000000
   46        3.240961   0.000000
   47        3.535266   0.000000
   48        3.957631   0.000000
   49        4.345530   0.000000
   50        5.051475   0.000000
 
  0.4444444E+00  0.2500000E+00  0.0000000E+00  0.2777778E-01
    1      -36.869768   1.000000
    2      -36.864953   1.000000
    3      -36.862925   1.000000
    4      -36.858143   1.000000
    5      -18.091682   1.000000
    6      -18.072815   1.000000
    7      -18.072175   1.000000
    8      -18.058293   1.000000
    9      -18.010116   1.000000
   10      -18.002164   1.000000
   11      -17.969823   1.000000
   12      -17.957974   1.000000
   13      -17.907431   1.000000
   14      -17.900665   1.000000
   15      -17.885258   1.000000
   16      -17.874550   1.000000
   17       -3.774093   1.000000
   18       -3.675078   1.000000
   19       -2.192041   1.000000
   20       -1.978098   1.000000
   21       -0.629486   1.000000
   22       -0.357174   1.000000
   23       -0.103845   1.000000
   24        0.267445   1.000000
   25        0.376330   1.000000
   26        0.658975   1.000000
   27        0.697423   1.000000
   28        1.192202   1.000000
   29        1.763705   1.000000
   30        1.833721   1.000000
   31        1.850689   1.000000
   32        2.023852   1.000000
   33        2.081833   1.000000
   34        2.087881   1.000000
   35        2.135451   1.000000
   36        2.255109   1.000000
   37        2.317714   1.000000
   38        2.377385   1.000000
   39        2.457317   1.000000
   40        2.622847   1.000000
   41        2.640093   1.000000
   42        2.905925   0.000000
   43        3.189041   0.000000
   44        3.195608   0.000000
   45        3.208188   0.000000
   46        3.231364   0.000000
   47        3.547151   0.000000
   48        4.037393   0.000000
   49        4.158940   0.000000
   50        4.338977   0.000000
 
  0.0000000E+00  0.5000000E+00  0.0000000E+00  0.6944444E-02
    1      -36.885243   1.000000
    2      -36.885243   1.000000
    3      -36.878184   1.000000
    4      -36.878184   1.000000
    5      -18.034911   1.000000
    6      -18.034911   1.000000
    7      -17.969833   1.000000
    8      -17.969833   1.000000
    9      -17.954891   1.000000
   10      -17.954891   1.000000
   11      -17.925115   1.000000
   12      -17.925115   1.000000
   13      -17.846661   1.000000
   14      -17.846661   1.000000
   15      -17.837903   1.000000
   16      -17.837903   1.000000
   17       -4.474663   1.000000
   18       -4.474663   1.000000
   19       -2.868616   1.000000
   20       -2.868616   1.000000
   21       -0.897441   1.000000
   22       -0.897441   1.000000
   23        0.594341   1.000000
   24        0.594341   1.000000
   25        0.677682   1.000000
   26        0.677682   1.000000
   27        1.262882   1.000000
   28        1.262882   1.000000
   29        1.390953   1.000000
   30        1.390953   1.000000
   31        1.720746   1.000000
   32        1.720746   1.000000
   33        2.233474   1.000000
   34        2.233474   1.000000
   35        2.367654   1.000000
   36        2.367654   1.000000
   37        2.428594   1.000000
   38        2.428594   1.000000
   39        2.706087   0.009132
   40        2.706087   0.009132
   41        2.711231   0.001008
   42        2.711231   0.001008
   43        3.022537   0.000000
   44        3.022537   0.000000
   45        3.335693   0.000000
   46        3.335693   0.000000
   47        3.932660   0.000000
   48        3.932660   0.000000
   49        5.059357   0.000000
   50        5.059357   0.000000
 
  0.1111111E+00  0.5000000E+00  0.0000000E+00  0.1388889E-01
    1      -36.883113   1.000000
    2      -36.883113   1.000000
    3      -36.876070   1.000000
    4      -36.876070   1.000000
    5      -18.031457   1.000000
    6      -18.031457   1.000000
    7      -17.965062   1.000000
    8      -17.965062   1.000000
    9      -17.950486   1.000000
   10      -17.950486   1.000000
   11      -17.922594   1.000000
   12      -17.922594   1.000000
   13      -17.875476   1.000000
   14      -17.875476   1.000000
   15      -17.865805   1.000000
   16      -17.865805   1.000000
   17       -4.392767   1.000000
   18       -4.392767   1.000000
   19       -2.785887   1.000000
   20       -2.785887   1.000000
   21       -0.844222   1.000000
   22       -0.844222   1.000000
   23        0.581328   1.000000
   24        0.581328   1.000000
   25        0.716859   1.000000
   26        0.716859   1.000000
   27        1.158134   1.000000
   28        1.158134   1.000000
   29        1.470020   1.000000
   30        1.470020   1.000000
   31        1.754345   1.000000
   32        1.754345   1.000000
   33        2.224740   1.000000
   34        2.224740   1.000000
   35        2.366917   1.000000
   36        2.366917   1.000000
   37        2.375627   1.000000
   38        2.375627   1.000000
   39        2.652135   1.000000
   40        2.652135   1.000000
   41        2.659114   0.999991
   42        2.659114   0.999991
   43        2.966905   0.000000
   44        2.966905   0.000000
   45        3.412587   0.000000
   46        3.412587   0.000000
   47        3.731592   0.000000
   48        3.731592   0.000000
   49        5.147030   0.000000
   50        5.147030   0.000000
 
  0.2222222E+00  0.5000000E+00  0.0000000E+00  0.1388889E-01
    1      -36.877655   1.000000
    2      -36.877655   1.000000
    3      -36.870686   1.000000
    4      -36.870686   1.000000
    5      -18.022689   1.000000
    6      -18.022689   1.000000
    7      -17.957664   1.000000
    8      -17.957664   1.000000
    9      -17.943718   1.000000
   10      -17.943718   1.000000
   11      -17.942780   1.000000
   12      -17.942780   1.000000
   13      -17.931211   1.000000
   14      -17.931211   1.000000
   15      -17.916151   1.000000
   16      -17.916151   1.000000
   17       -4.176523   1.000000
   18       -4.176523   1.000000
   19       -2.565885   1.000000
   20       -2.565885   1.000000
   21       -0.713496   1.000000
   22       -0.713496   1.000000
   23        0.518514   1.000000
   24        0.518514   1.000000
   25        0.787541   1.000000
   26        0.787541   1.000000
   27        0.916097   1.000000
   28        0.916097   1.000000
   29        1.703967   1.000000
   30        1.703967   1.000000
   31        1.792462   1.000000
   32        1.792462   1.000000
   33        2.193899   1.000000
   34        2.193899   1.000000
   35        2.273194   1.000000
   36        2.273194   1.000000
   37        2.391074   1.000000
   38        2.391074   1.000000
   39        2.527624   1.000000
   40        2.527624   1.000000
   41        2.532643   1.000000
   42        2.532643   1.000000
   43        2.855212   0.000000
   44        2.855212   0.000000
   45        3.412017   0.000000
   46        3.412017   0.000000
   47        3.582331   0.000000
   48        3.582331   0.000000
   49        5.274658   0.000000
   50        5.276569   0.000000
 
  0.3333333E+00  0.5000000E+00  0.0000000E+00  0.1388889E-01
    1      -36.871409   1.000000
    2      -36.871409   1.000000
    3      -36.864557   1.000000
    4      -36.864557   1.000000
    5      -18.030082   1.000000
    6      -18.030082   1.000000
    7      -18.015250   1.000000
    8      -18.015250   1.000000
    9      -18.012691   1.000000
   10      -18.012691   1.000000
   11      -17.936949   1.000000
   12      -17.936949   1.000000
   13      -17.924964   1.000000
   14      -17.924964   1.000000
   15      -17.908828   1.000000
   16      -17.908828   1.000000
   17       -3.910799   1.000000
   18       -3.910799   1.000000
   19       -2.289210   1.000000
   20       -2.289210   1.000000
   21       -0.574455   1.000000
   22       -0.574455   1.000000
   23        0.329837   1.000000
   24        0.329837   1.000000
   25        0.737152   1.000000
   26        0.737152   1.000000
   27        0.770728   1.000000
   28        0.770728   1.000000
   29        1.789605   1.000000
   30        1.789605   1.000000
   31        1.981854   1.000000
   32        1.981854   1.000000
   33        2.128282   1.000000
   34        2.128282   1.000000
   35        2.211445   1.000000
   36        2.211445   1.000000
   37        2.387350   1.000000
   38        2.387350   1.000000
   39        2.395749   1.000000
   40        2.395749   1.000000
   41        2.596649   1.000000
   42        2.596649   1.000000
   43        2.824257   0.000000
   44        2.824257   0.000000
   45        3.230585   0.000000
   46        3.230585   0.000000
   47        3.750875   0.000000
   48        3.750875   0.000000
   49        4.933703   0.000000
   50        4.933703   0.000000
 
  0.4444444E+00  0.5000000E+00  0.0000000E+00  0.1388889E-01
    1      -36.867351   1.000000
    2      -36.867351   1.000000
    3      -36.860546   1.000000
    4      -36.860546   1.000000
    5      -18.081938   1.000000
    6      -18.081938   1.000000
    7      -18.065558   1.000000
    8      -18.065558   1.000000
    9      -18.006143   1.000000
   10      -18.006143   1.000000
   11      -17.927774   1.000000
   12      -17.927774   1.000000
   13      -17.916525   1.000000
   14      -17.916525   1.000000
   15      -17.904043   1.000000
   16      -17.904043   1.000000
   17       -3.722330   1.000000
   18       -3.722330   1.000000
   19       -2.083001   1.000000
   20       -2.083001   1.000000
   21       -0.490650   1.000000
   22       -0.490650   1.000000
   23        0.124199   1.000000
   24        0.124199   1.000000
   25        0.670543   1.000000
   26        0.670543   1.000000
   27        0.683305   1.000000
   28        0.683305   1.000000
   29        1.825369   1.000000
   30        1.825369   1.000000
   31        2.075961   1.000000
   32        2.075961   1.000000
   33        2.080986   1.000000
   34        2.080986   1.000000
   35        2.187523   1.000000
   36        2.187523   1.000000
   37        2.277451   1.000000
   38        2.277451   1.000000
   39        2.315863   1.000000
   40        2.315863   1.000000
   41        2.809652   0.000000
   42        2.809652   0.000000
   43        3.177902   0.000000
   44        3.177902   0.000000
   45        3.214745   0.000000
   46        3.214745   0.000000
   47        3.852357   0.000000
   48        3.852357   0.000000
   49        4.213312   0.000000
   50        4.213312   0.000000
 
  0.0000000E+00  0.0000000E+00  0.2500000E+00  0.1388889E-01
    1      -36.887746   1.000000
    2      -36.882586   1.000000
    3      -36.880739   1.000000
    4      -36.875820   1.000000
    5      -18.033645   1.000000
    6      -18.027208   1.000000
    7      -18.019129   1.000000
    8      -18.010798   1.000000
    9      -17.946703   1.000000
   10      -17.936084   1.000000
   11      -17.900476   1.000000
   12      -17.893975   1.000000
   13      -17.853097   1.000000
   14      -17.847265   1.000000
   15      -17.837582   1.000000
   16      -17.830988   1.000000
   17       -4.795924   1.000000
   18       -3.750559   1.000000
   19       -3.719805   1.000000
   20       -2.669751   1.000000
   21       -0.322673   1.000000
   22       -0.175841   1.000000
   23       -0.092745   1.000000
   24       -0.019886   1.000000
   25        0.826017   1.000000
   26        1.123683   1.000000
   27        1.204060   1.000000
   28        1.287075   1.000000
   29        1.541555   1.000000
   30        1.601852   1.000000
   31        1.723745   1.000000
   32        1.921641   1.000000
   33        2.013430   1.000000
   34        2.041662   1.000000
   35        2.173410   1.000000
   36        2.183096   1.000000
   37        2.301164   1.000000
   38        2.487835   1.000000
   39        2.546511   1.000000
   40        2.602066   1.000000
   41        2.669218   0.997840
   42        2.766834   0.000000
   43        2.825456   0.000000
   44        3.030176   0.000000
   45        3.080279   0.000000
   46        3.349459   0.000000
   47        3.917644   0.000000
   48        4.284933   0.000000
   49        4.891118   0.000000
   50        5.007330   0.000000
 
  0.1111111E+00  0.0000000E+00  0.2500000E+00  0.2777778E-01
    1      -36.885579   1.000000
    2      -36.880449   1.000000
    3      -36.878587   1.000000
    4      -36.873725   1.000000
    5      -18.027986   1.000000
    6      -18.023581   1.000000
    7      -18.014213   1.000000
    8      -18.007828   1.000000
    9      -17.944013   1.000000
   10      -17.933465   1.000000
   11      -17.896846   1.000000
   12      -17.890212   1.000000
   13      -17.882561   1.000000
   14      -17.875686   1.000000
   15      -17.865276   1.000000
   16      -17.858398   1.000000
   17       -4.675423   1.000000
   18       -3.710428   1.000000
   19       -3.633833   1.000000
   20       -2.664153   1.000000
   21       -0.284076   1.000000
   22       -0.066366   1.000000
   23       -0.040913   1.000000
   24        0.126960   1.000000
   25        0.864529   1.000000
   26        1.116414   1.000000
   27        1.163147   1.000000
   28        1.231051   1.000000
   29        1.426278   1.000000
   30        1.675590   1.000000
   31        1.694061   1.000000
   32        1.859827   1.000000
   33        1.990395   1.000000
   34        2.042156   1.000000
   35        2.165513   1.000000
   36        2.212973   1.000000
   37        2.268494   1.000000
   38        2.521095   1.000000
   39        2.536122   1.000000
   40        2.595483   1.000000
   41        2.624712   1.000000
   42        2.737099   0.000000
   43        2.768905   0.000000
   44        3.040240   0.000000
   45        3.106272   0.000000
   46        3.384535   0.000000
   47        3.892627   0.000000
   48        4.098862   0.000000
   49        4.492297   0.000000
   50        5.059915   0.000000
 
  0.2222222E+00  0.0000000E+00  0.2500000E+00  0.2777778E-01
    1      -36.880080   1.000000
    2      -36.875059   1.000000
    3      -36.873157   1.000000
    4      -36.868330   1.000000
    5      -18.014374   1.000000
    6      -18.013939   1.000000
    7      -18.001977   1.000000
    8      -18.000206   1.000000
    9      -17.956344   1.000000
   10      -17.946507   1.000000
   11      -17.937201   1.000000
   12      -17.936798   1.000000
   13      -17.929445   1.000000
   14      -17.926681   1.000000
   15      -17.885108   1.000000
   16      -17.878224   1.000000
   17       -4.341962   1.000000
   18       -3.688347   1.000000