    2    2   10    1
  0.2034159E+02  0.3439312E-09  0.3439312E-09  0.3439312E-09  0.1000000E-15
  1.000000000000000E-004
  CAR 
 DFT routine                             
      2     35      5
 
  0.0000000E+00  0.0000000E+00  0.0000000E+00  0.1371742E-02
    1       -3.180864   1.000000
    2        5.902793   0.000000
    3        5.902793   0.000000
    4        5.902793   0.000000
    5        8.147161   0.000000
 
  0.1111111E+00  0.0000000E+00  0.0000000E+00  0.8230453E-02
    1       -3.063342   1.000000
    2        4.574615   0.000000
    3        6.053645   0.000000
    4        6.053645   0.000000
    5        8.304036   0.000000
 
  0.2222222E+00  0.0000000E+00  0.0000000E+00  0.8230453E-02
    1       -2.709388   1.000000
    2        2.772732   0.000000
    3        6.505285   0.000000
    4        6.505285   0.000000
    5        8.774653   0.000000
 
  0.3333333E+00  0.1232595E-31  0.0000000E+00  0.8230453E-02
    1       -2.115199   1.000000
    2        1.169107   0.000000
    3        7.254683   0.000000
    4        7.254683   0.000000
    5        9.558994   0.000000
 
  0.4444444E+00  0.0000000E+00  0.0000000E+00  0.8230453E-02
    1       -1.274860   1.000000
    2       -0.181717   1.000000
    3        8.294890   0.000000
    4        8.294890   0.000000
    5        9.611039   0.000000
 
  0.1111111E+00  0.1111111E+00  0.0000000E+00  0.1646091E-01
    1       -2.945932   1.000000
    2        4.313579   0.000000
    3        5.227824   0.000000
    4        6.204143   0.000000
    5        9.237654   0.000000
 
  0.2222222E+00  0.1111111E+00  0.0000000E+00  0.3292181E-01
    1       -2.592540   1.000000
    2        2.809937   0.000000
    3        5.420354   0.000000
    4        6.654584   0.000000
    5        9.903622   0.000000
 
  0.3333333E+00  0.1111111E+00  0.0000000E+00  0.3292181E-01
    1       -1.999915   1.000000
    2        1.254812   0.000000
    3        6.131211   0.000000
    4        7.401333   0.000000
    5        9.999708   0.000000
 
  0.4444444E+00  0.1111111E+00  0.0000000E+00  0.3292181E-01
    1       -1.163283   1.000000
    2       -0.078170   1.000000
    3        7.151170   0.000000
    4        8.436018   0.000000
    5        8.451199   0.000000
 
  0.2222222E+00  0.2222222E+00  0.0000000E+00  0.1646091E-01
    1       -2.241561   1.000000
    2        2.544909   0.000000
    3        4.393841   0.000000
    4        7.100848   0.000000
    5        9.944502   0.000000
 
  0.3333333E+00  0.2222222E+00  0.0000000E+00  0.3292181E-01
    1       -1.655517   1.000000
    2        1.435887   0.000000
    3        4.651082   0.000000
    4        7.838259   0.000000
    5        8.244056   0.000000
 
  0.4444444E+00  0.2222222E+00  0.0000000E+00  0.3292181E-01
    1       -0.834975   1.000000
    2        0.211389   1.000000
    3        5.535458   0.000000
    4        6.755869   0.000000
    5        8.852216   0.000000
 
  0.3333333E+00  0.3333333E+00  0.0000000E+00  0.1646091E-01
    1       -1.088098   1.000000
    2        1.329669   0.000000
    3        3.876611   0.000000
    4        6.620221   0.000000
    5        8.553456   0.000000
 
  0.4444444E+00  0.3333333E+00  0.0000000E+00  0.3292181E-01
    1       -0.317196   1.000000
    2        0.585726   0.000000
    3        4.233002   0.000000
    4        5.248722   0.000000
    5        9.512195   0.000000
 
  0.4444444E+00  0.4444444E+00  0.0000000E+00  0.1646091E-01
    1        0.299059   0.999995
    2        0.717471   0.000000
    3        3.650079   0.000000
    4        4.107532   0.000000
    5       10.304355   0.000000
 
  0.1111111E+00  0.1111111E+00  0.1111111E+00  0.1097394E-01
    1       -2.828560   1.000000
    2        4.466883   0.000000
    3        4.466883   0.000000
    4        6.068439   0.000000
    5       10.510545   0.000000
 
  0.2222222E+00  0.1111111E+00  0.1111111E+00  0.3292181E-01
    1       -2.475479   1.000000
    2        2.883139   0.000000
    3        4.926344   0.000000
    4        6.404584   0.000000
    5       10.971467   0.000000
 
  0.3333333E+00  0.1111111E+00  0.1111111E+00  0.3292181E-01
    1       -1.883935   1.000000
    2        1.349600   0.000000
    3        5.690411   0.000000
    4        7.073901   0.000000
    5        9.751120   0.000000
 
  0.4444444E+00  0.1111111E+00  0.1111111E+00  0.3292181E-01
    1       -1.050119   1.000000
    2        0.028888   1.000000
    3        6.755655   0.000000
    4        8.011593   0.000000
    5        8.114844   0.000000
 
  0.2222222E+00  0.2222222E+00  0.1111111E+00  0.3292181E-01
    1       -2.123992   1.000000
    2        2.699095   0.000000
    3        4.115187   0.000000
    4        6.641575   0.000000
    5        9.995976   0.000000
 
  0.3333333E+00  0.2222222E+00  0.1111111E+00  0.6584362E-01
    1       -1.537510   1.000000
    2        1.560852   0.000000
    3        4.505792   0.000000
    4        7.262648   0.000000
    5        8.267904   0.000000
 
  0.4444444E+00  0.2222222E+00  0.1111111E+00  0.6584362E-01
    1       -0.716932   1.000000
    2        0.329617   0.541668
    3        5.460058   0.000000
    4        6.733129   0.000000
    5        8.154822   0.000000
 
  0.3333333E+00  0.3333333E+00  0.1111111E+00  0.3292181E-01
    1       -0.966712   1.000000
    2        1.484230   0.000000
    3        3.801573   0.000000
    4        6.666995   0.000000
    5        7.855952   0.000000
 
  0.4444444E+00  0.3333333E+00  0.1111111E+00  0.6584362E-01
    1       -0.190298   1.000000
    2        0.724186   0.000000
    3        4.222742   0.000000
    4        5.278720   0.000000
    5        8.711758   0.000000
 
  0.4444444E+00  0.4444444E+00  0.1111111E+00  0.3292181E-01
    1        0.440606   0.000000
    2        0.872166   0.000000
    3        3.655967   0.000000
    4        4.135859   0.000000
    5        9.507076   0.000000
 
  0.2222222E+00  0.2222222E+00  0.2222222E+00  0.1097394E-01
    1       -1.771534   1.000000
    2        3.161402   0.000000
    3        3.161402   0.000000
    4        6.407155   0.000000
    5        9.992409   0.000000
 
  0.3333333E+00  0.2222222E+00  0.2222222E+00  0.3292181E-01
    1       -1.185284   1.000000
    2        1.884478   0.000000
    3        3.930946   0.000000
    4        6.743176   0.000000
    5        8.051609   0.000000
 
  0.4444444E+00  0.2222222E+00  0.2222222E+00  0.3292181E-01
    1       -0.368844   1.000000
    2        0.666462   0.000000
    3        5.005832   0.000000
    4        6.382185   0.000000
    5        7.405548   0.000000
 
  0.3333333E+00  0.3333333E+00  0.2222222E+00  0.3292181E-01
    1       -0.605499   1.000000
    2        1.947701   0.000000
    3        3.466566   0.000000
    4        6.781487   0.000000
    5        6.885803   0.000000
 
  0.4444444E+00  0.3333333E+00  0.2222222E+00  0.6584362E-01
    1        0.184416   1.000000
    2        1.129096   0.000000
    3        4.130998   0.000000
    4        5.331536   0.000000
    5        7.422557   0.000000
 
  0.4444444E+00  0.4444444E+00  0.2222222E+00  0.3292181E-01
    1        0.860032   0.000000
    2        1.336094   0.000000
    3        3.654669   0.000000
    4        4.218295   0.000000
    5        7.851385   0.000000
 
  0.3333333E+00  0.3333333E+00  0.3333333E+00  0.1097394E-01
    1       -0.014523   1.000000
    2        2.719465   0.000000
    3        2.719465   0.000000
    4        6.468108   0.000000
    5        6.863685   0.000000
 
  0.4444444E+00  0.3333333E+00  0.3333333E+00  0.3292181E-01
    1        0.783595   0.000000
    2        1.737432   0.000000
    3        3.798260   0.000000
    4        5.181485   0.000000
    5        6.536251   0.000000
 
  0.4444444E+00  0.4444444E+00  0.3333333E+00  0.3292181E-01
    1        1.535559   0.000000
    2        2.108759   0.000000
    3        3.568274   0.000000
    4        4.352941   0.000000
    5        6.239017   0.000000
 
  0.4444444E+00  0.4444444E+00  0.4444444E+00  0.1097394E-01
    1        2.394381   0.000000
    2        3.189082   0.000000
    3        3.189082   0.000000
    4        4.574968   0.000000
    5        4.574968   0.000000
