    6    6    3    1
  0.1538862E+02  0.3542920E-09  0.3542920E-09  0.7355770E-09  0.1000000E-15
  1.000000000000000E-004
  CAR 
 DFT routine                             
     42     45     25
