DFT routine                             
   1.00000000000000     
     5.428552    0.000000    0.000000
     0.000000    5.428552    0.000000
     0.000000    0.000000    5.428552
   H 
     4
Direct
  0.000000  0.000000  0.000000
  0.000000  0.500000  0.500000
  0.500000  0.000000  0.500000
  0.500000  0.500000  0.000000
 
   36   36   36
  1.0000      1.0000      1.0000      1.0000     0.99998     0.99988     0.99931     0.99481     0.96176     0.80935    
 0.44859     0.13938     0.41160E-01 0.18124E-01 0.99842E-02 0.54531E-02 0.35283E-02 0.31338E-02 0.31641E-02 0.31338E-02
 0.35283E-02 0.54531E-02 0.99842E-02 0.18124E-01 0.41160E-01 0.13938     0.44859     0.80935     0.96176     0.99481    
 0.99931     0.99988     0.99998      1.0000      1.0000      1.0000      1.0000      1.0000      1.0000      1.0000    
 0.99997     0.99984     0.99908     0.99317     0.95314     0.78759     0.43143     0.13679     0.41353E-01 0.18028E-01
 0.95890E-02 0.51828E-02 0.34221E-02 0.30907E-02 0.31338E-02 0.30907E-02 0.34221E-02 0.51828E-02 0.95890E-02 0.18028E-01
 0.41353E-01 0.13679     0.43143     0.78759     0.95314     0.99317     0.99908     0.99984     0.99997      1.0000    
  1.0000      1.0000      1.0000      1.0000      1.0000     0.99999     0.99994     0.99968     0.99806     0.98681    
 0.92593     0.72460     0.36803     0.11516     0.36538E-01 0.16023E-01 0.83202E-02 0.47481E-02 0.35215E-02 0.34221E-02
 0.35283E-02 0.34221E-02 0.35215E-02 0.47481E-02 0.83202E-02 0.16023E-01 0.36538E-01 0.11516     0.36803     0.72460    
 0.92593     0.98681     0.99806     0.99968     0.99994     0.99999      1.0000      1.0000      1.0000      1.0000    
 0.99999     0.99996     0.99981     0.99906     0.99475     0.97103     0.87113     0.59998     0.24521     0.71303E-01
 0.25040E-01 0.12258E-01 0.71783E-02 0.50696E-02 0.47481E-02 0.51828E-02 0.54531E-02 0.51828E-02 0.47481E-02 0.50696E-02
 0.71783E-02 0.12258E-01 0.25040E-01 0.71303E-01 0.24521     0.59998     0.87113     0.97103     0.99475     0.99906    
 0.99981     0.99996     0.99999      1.0000     0.99998     0.99997     0.99994     0.99981     0.99925     0.99660    
 0.98407     0.93017     0.74578     0.38263     0.11801     0.36546E-01 0.16677E-01 0.10454E-01 0.77340E-02 0.71783E-02
 0.83202E-02 0.95890E-02 0.99842E-02 0.95890E-02 0.83202E-02 0.71783E-02 0.77340E-02 0.10454E-01 0.16677E-01 0.36546E-01
 0.11801     0.38263     0.74578     0.93017     0.98407     0.99660     0.99925     0.99981     0.99994     0.99997    
 0.99988     0.99984     0.99968     0.99906     0.99660     0.98675     0.94766     0.80888     0.48314     0.16948    
 0.51336E-01 0.21769E-01 0.14158E-01 0.11342E-01 0.10454E-01 0.12258E-01 0.16023E-01 0.18028E-01 0.18124E-01 0.18028E-01
 0.16023E-01 0.12258E-01 0.10454E-01 0.11342E-01 0.14158E-01 0.21769E-01 0.51336E-01 0.16948     0.48314     0.80888    
 0.94766     0.98675     0.99660     0.99906     0.99968     0.99984     0.99931     0.99908     0.99806     0.99475    
 0.98407     0.94766     0.82419     0.52569     0.20778     0.66987E-01 0.27239E-01 0.17132E-01 0.14644E-01 0.14158E-01
 0.16677E-01 0.25040E-01 0.36538E-01 0.41353E-01 0.41160E-01 0.41353E-01 0.36538E-01 0.25040E-01 0.16677E-01 0.14158E-01
 0.14644E-01 0.17132E-01 0.27239E-01 0.66987E-01 0.20778     0.52569     0.82419     0.94766     0.98407     0.99475    
 0.99806     0.99908     0.99481     0.99317     0.98681     0.97103     0.93017     0.80888     0.52569     0.22054    
 0.77202E-01 0.31906E-01 0.19046E-01 0.16289E-01 0.17132E-01 0.21769E-01 0.36546E-01 0.71303E-01 0.11516     0.13679    
 0.13938     0.13679     0.11516     0.71303E-01 0.36546E-01 0.21769E-01 0.17132E-01 0.16289E-01 0.19046E-01 0.31906E-01
 0.77202E-01 0.22054     0.52569     0.80888     0.93017     0.97103     0.98681     0.99317     0.96176     0.95314    
 0.92593     0.87113     0.74578     0.48314     0.20778     0.77202E-01 0.33832E-01 0.20185E-01 0.16992E-01 0.19046E-01
 0.27239E-01 0.51336E-01 0.11801     0.24521     0.36803     0.43143     0.44859     0.43143     0.36803     0.24521    
 0.11801     0.51336E-01 0.27239E-01 0.19046E-01 0.16992E-01 0.20185E-01 0.33832E-01 0.77202E-01 0.20778     0.48314    
 0.74578     0.87113     0.92593     0.95314     0.80935     0.78759     0.72460     0.59998     0.38263     0.16948    
 0.66987E-01 0.31906E-01 0.20185E-01 0.17280E-01 0.20185E-01 0.31906E-01 0.66987E-01 0.16948     0.38263     0.59998    
 0.72460     0.78759     0.80935     0.78759     0.72460     0.59998     0.38263     0.16948     0.66987E-01 0.31906E-01
 0.20185E-01 0.17280E-01 0.20185E-01 0.31906E-01 0.66987E-01 0.16948     0.38263     0.59998     0.72460     0.78759    
 0.44859     0.43143     0.36803     0.24521     0.11801     0.51336E-01 0.27239E-01 0.19046E-01 0.16992E-01 0.20185E-01
 0.33832E-01 0.77202E-01 0.20778     0.48314     0.74578     0.87113     0.92593     0.95314     0.96176     0.95314    
 0.92593     0.87113     0.74578     0.48314     0.20778     0.77202E-01 0.33832E-01 0.20185E-01 0.16992E-01 0.19046E-01
 0.27239E-01 0.51336E-01 0.11801     0.24521     0.36803     0.43143     0.13938     0.13679     0.11516     0.71303E-01
 0.36546E-01 0.21769E-01 0.17132E-01 0.16289E-01 0.19046E-01 0.31906E-01 0.77202E-01 0.22054     0.52569     0.80888    
 0.93017     0.97103     0.98681     0.99317     0.99481     0.99317     0.98681     0.97103     0.93017     0.80888    
 0.52569     0.22054     0.77202E-01 0.31906E-01 0.19046E-01 0.16289E-01 0.17132E-01 0.21769E-01 0.36546E-01 0.71303E-01
 0.11516     0.13679     0.41160E-01 0.41353E-01 0.36538E-01 0.25040E-01 0.16677E-01 0.14158E-01 0.14644E-01 0.17132E-01
 0.27239E-01 0.66987E-01 0.20778     0.52569     0.82419     0.94766     0.98407     0.99475     0.99806     0.99908    
 0.99931     0.99908     0.99806     0.99475     0.98407     0.94766     0.82419     0.52569     0.20778     0.66987E-01
 0.27239E-01 0.17132E-01 0.14644E-01 0.14158E-01 0.16677E-01 0.25040E-01 0.36538E-01 0.41353E-01 0.18124E-01 0.18028E-01
 0.16023E-01 0.12258E-01 0.10454E-01 0.11342E-01 0.14158E-01 0.21769E-01 0.51336E-01 0.16948     0.48314     0.80888    
 0.94766     0.98675     0.99660     0.99906     0.99968     0.99984     0.99988     0.99984     0.99968     0.99906    
 0.99660     0.98675     0.94766     0.80888     0.48314     0.16948     0.51336E-01 0.21769E-01 0.14158E-01 0.11342E-01
 0.10454E-01 0.12258E-01 0.16023E-01 0.18028E-01 0.99842E-02 0.95890E-02 0.83202E-02 0.71783E-02 0.77340E-02 0.10454E-01
 0.16677E-01 0.36546E-01 0.11801     0.38263     0.74578     0.93017     0.98407     0.99660     0.99925     0.99981    
 0.99994     0.99997     0.99998     0.99997     0.99994     0.99981     0.99925     0.99660     0.98407     0.93017    
 0.74578     0.38263     0.11801     0.36546E-01 0.16677E-01 0.10454E-01 0.77340E-02 0.71783E-02 0.83202E-02 0.95890E-02
 0.54531E-02 0.51828E-02 0.47481E-02 0.50696E-02 0.71783E-02 0.12258E-01 0.25040E-01 0.71303E-01 0.24521     0.59998    
 0.87113     0.97103     0.99475     0.99906     0.99981     0.99996     0.99999      1.0000      1.0000      1.0000    
 0.99999     0.99996     0.99981     0.99906     0.99475     0.97103     0.87113     0.59998     0.24521     0.71303E-01
 0.25040E-01 0.12258E-01 0.71783E-02 0.50696E-02 0.47481E-02 0.51828E-02 0.35283E-02 0.34221E-02 0.35215E-02 0.47481E-02
 0.83202E-02 0.16023E-01 0.36538E-01 0.11516     0.36803     0.72460     0.92593     0.98681     0.99806     0.99968    
 0.99994     0.99999      1.0000      1.0000      1.0000      1.0000      1.0000     0.99999     0.99994     0.99968    
 0.99806     0.98681     0.92593     0.72460     0.36803     0.11516     0.36538E-01 0.16023E-01 0.83202E-02 0.47481E-02
 0.35215E-02 0.34221E-02 0.31338E-02 0.30907E-02 0.34221E-02 0.51828E-02 0.95890E-02 0.18028E-01 0.41353E-01 0.13679    
 0.43143     0.78759     0.95314     0.99317     0.99908     0.99984     0.99997      1.0000      1.0000      1.0000    
  1.0000      1.0000      1.0000      1.0000     0.99997     0.99984     0.99908     0.99317     0.95314     0.78759    
 0.43143     0.13679     0.41353E-01 0.18028E-01 0.95890E-02 0.51828E-02 0.34221E-02 0.30907E-02 0.31641E-02 0.31338E-02
 0.35283E-02 0.54531E-02 0.99842E-02 0.18124E-01 0.41160E-01 0.13938     0.44859     0.80935     0.96176     0.99481    
 0.99931     0.99988     0.99998      1.0000      1.0000      1.0000      1.0000      1.0000      1.0000      1.0000    
 0.99998     0.99988     0.99931     0.99481     0.96176     0.80935     0.44859     0.13938     0.41160E-01 0.18124E-01
 0.99842E-02 0.54531E-02 0.35283E-02 0.31338E-02 0.31338E-02 0.30907E-02 0.34221E-02 0.51828E-02 0.95890E-02 0.18028E-01
 0.41353E-01 0.13679     0.43143     0.78759     0.95314     0.99317     0.99908     0.99984     0.99997      1.0000    
  1.0000      1.0000      1.0000      1.0000      1.0000      1.0000     0.99997     0.99984     0.99908     0.99317    
 0.95314     0.78759     0.43143     0.13679     0.41353E-01 0.18028E-01 0.95890E-02 0.51828E-02 0.34221E-02 0.30907E-02
 0.35283E-02 0.34221E-02 0.35215E-02 0.47481E-02 0.83202E-02 0.16023E-01 0.36538E-01 0.11516     0.36803     0.72460    
 0.92593     0.98681     0.99806     0.99968     0.99994     0.99999      1.0000      1.0000      1.0000      1.0000    
  1.0000     0.99999     0.99994     0.99968     0.99806     0.98681     0.92593     0.72460     0.36803     0.11516    
 0.36538E-01 0.16023E-01 0.83202E-02 0.47481E-02 0.35215E-02 0.34221E-02 0.54531E-02 0.51828E-02 0.47481E-02 0.50696E-02
 0.71783E-02 0.12258E-01 0.25040E-01 0.71303E-01 0.24521     0.59998     0.87113     0.97103     0.99475     0.99906    
 0.99981     0.99996     0.99999      1.0000      1.0000      1.0000     0.99999     0.99996     0.99981     0.99906    
 0.99475     0.97103     0.87113     0.59998     0.24521     0.71303E-01 0.25040E-01 0.12258E-01 0.71783E-02 0.50696E-02
 0.47481E-02 0.51828E-02 0.99842E-02 0.95890E-02 0.83202E-02 0.71783E-02 0.77340E-02 0.10454E-01 0.16677E-01 0.36546E-01
 0.11801     0.38263     0.74578     0.93017     0.98407     0.99660     0.99925     0.99981     0.99994     0.99997    
 0.99998     0.99997     0.99994     0.99981     0.99925     0.99660     0.98407     0.93017     0.74578     0.38263    
 0.11801     0.36546E-01 0.16677E-01 0.10454E-01 0.77340E-02 0.71783E-02 0.83202E-02 0.95890E-02 0.18124E-01 0.18028E-01
 0.16023E-01 0.12258E-01 0.10454E-01 0.11342E-01 0.14158E-01 0.21769E-01 0.51336E-01 0.16948     0.48314     0.80888    
 0.94766     0.98675     0.99660     0.99906     0.99968     0.99984     0.99988     0.99984     0.99968     0.99906    
 0.99660     0.98675     0.94766     0.80888     0.48314     0.16948     0.51336E-01 0.21769E-01 0.14158E-01 0.11342E-01
 0.10454E-01 0.12258E-01 0.16023E-01 0.18028E-01 0.41160E-01 0.41353E-01 0.36538E-01 0.25040E-01 0.16677E-01 0.14158E-01
 0.14644E-01 0.17132E-01 0.27239E-01 0.66987E-01 0.20778     0.52569     0.82419     0.94766     0.98407     0.99475    
 0.99806     0.99908     0.99931     0.99908     0.99806     0.99475     0.98407     0.94766     0.82419     0.52569    
 0.20778     0.66987E-01 0.27239E-01 0.17132E-01 0.14644E-01 0.14158E-01 0.16677E-01 0.25040E-01 0.36538E-01 0.41353E-01
 0.13938     0.13679     0.11516     0.71303E-01 0.36546E-01 0.21769E-01 0.17132E-01 0.16289E-01 0.19046E-01 0.31906E-01
 0.77202E-01 0.22054     0.52569     0.80888     0.93017     0.97103     0.98681     0.99317     0.99481     0.99317    
 0.98681     0.97103     0.93017     0.80888     0.52569     0.22054     0.77202E-01 0.31906E-01 0.19046E-01 0.16289E-01
 0.17132E-01 0.21769E-01 0.36546E-01 0.71303E-01 0.11516     0.13679     0.44859     0.43143     0.36803     0.24521    
 0.11801     0.51336E-01 0.27239E-01 0.19046E-01 0.16992E-01 0.20185E-01 0.33832E-01 0.77202E-01 0.20778     0.48314    
 0.74578     0.87113     0.92593     0.95314     0.96176     0.95314     0.92593     0.87113     0.74578     0.48314    
 0.20778     0.77202E-01 0.33832E-01 0.20185E-01 0.16992E-01 0.19046E-01 0.27239E-01 0.51336E-01 0.11801     0.24521    
 0.36803     0.43143     0.80935     0.78759     0.72460     0.59998     0.38263     0.16948     0.66987E-01 0.31906E-01
 0.20185E-01 0.17280E-01 0.20185E-01 0.31906E-01 0.66987E-01 0.16948     0.38263     0.59998     0.72460     0.78759    
 0.80935     0.78759     0.72460     0.59998     0.38263     0.16948     0.66987E-01 0.31906E-01 0.20185E-01 0.17280E-01
 0.20185E-01 0.31906E-01 0.66987E-01 0.16948     0.38263     0.59998     0.72460     0.78759     0.96176     0.95314    
 0.92593     0.87113     0.74578     0.48314     0.20778     0.77202E-01 0.33832E-01 0.20185E-01 0.16992E-01 0.19046E-01
 0.27239E-01 0.51336E-01 0.11801     0.24521     0.36803     0.43143     0.44859     0.43143     0.36803     0.24521    
 0.11801     0.51336E-01 0.27239E-01 0.19046E-01 0.16992E-01 0.20185E-01 0.33832E-01 0.77202E-01 0.20778     0.48314    
 0.74578     0.87113     0.92593     0.95314     0.99481     0.99317     0.98681     0.97103     0.93017     0.80888    
 0.52569     0.22054     0.77202E-01 0.31906E-01 0.19046E-01 0.16289E-01 0.17132E-01 0.21769E-01 0.36546E-01 0.71303E-01
 0.11516     0.13679     0.13938     0.13679     0.11516     0.71303E-01 0.36546E-01 0.21769E-01 0.17132E-01 0.16289E-01
 0.19046E-01 0.31906E-01 0.77202E-01 0.22054     0.52569     0.80888     0.93017     0.97103     0.98681     0.99317    
 0.99931     0.99908     0.99806     0.99475     0.98407     0.94766     0.82419     0.52569     0.20778     0.66987E-01
 0.27239E-01 0.17132E-01 0.14644E-01 0.14158E-01 0.16677E-01 0.25040E-01 0.36538E-01 0.41353E-01 0.41160E-01 0.41353E-01
 0.36538E-01 0.25040E-01 0.16677E-01 0.14158E-01 0.14644E-01 0.17132E-01 0.27239E-01 0.66987E-01 0.20778     0.52569    
 0.82419     0.94766     0.98407     0.99475     0.99806     0.99908     0.99988     0.99984     0.99968     0.99906    
 0.99660     0.98675     0.94766     0.80888     0.48314     0.16948     0.51336E-01 0.21769E-01 0.14158E-01 0.11342E-01
 0.10454E-01 0.12258E-01 0.16023E-01 0.18028E-01 0.18124E-01 0.18028E-01 0.16023E-01 0.12258E-01 0.10454E-01 0.11342E-01
 0.14158E-01 0.21769E-01 0.51336E-01 0.16948     0.48314     0.80888     0.94766     0.98675     0.99660     0.99906    
 0.99968     0.99984     0.99998     0.99997     0.99994     0.99981     0.99925     0.99660     0.98407     0.93017    
 0.74578     0.38263     0.11801     0.36546E-01 0.16677E-01 0.10454E-01 0.77340E-02 0.71783E-02 0.83202E-02 0.95890E-02
 0.99842E-02 0.95890E-02 0.83202E-02 0.71783E-02 0.77340E-02 0.10454E-01 0.16677E-01 0.36546E-01 0.11801     0.38263    
 0.74578     0.93017     0.98407     0.99660     0.99925     0.99981     0.99994     0.99997      1.0000      1.0000    
 0.99999     0.99996     0.99981     0.99906     0.99475     0.97103     0.87113     0.59998     0.24521     0.71303E-01
 0.25040E-01 0.12258E-01 0.71783E-02 0.50696E-02 0.47481E-02 0.51828E-02 0.54531E-02 0.51828E-02 0.47481E-02 0.50696E-02
 0.71783E-02 0.12258E-01 0.25040E-01 0.71303E-01 0.24521     0.59998     0.87113     0.97103     0.99475     0.99906    
 0.99981     0.99996     0.99999      1.0000      1.0000      1.0000      1.0000     0.99999     0.99994     0.99968    
 0.99806     0.98681     0.92593     0.72460     0.36803     0.11516     0.36538E-01 0.16023E-01 0.83202E-02 0.47481E-02
 0.35215E-02 0.34221E-02 0.35283E-02 0.34221E-02 0.35215E-02 0.47481E-02 0.83202E-02 0.16023E-01 0.36538E-01 0.11516    
 0.36803     0.72460     0.92593     0.98681     0.99806     0.99968     0.99994     0.99999      1.0000      1.0000    
  1.0000      1.0000      1.0000      1.0000     0.99997     0.99984     0.99908     0.99317     0.95314     0.78759    
 0.43143     0.13679     0.41353E-01 0.18028E-01 0.95890E-02 0.51828E-02 0.34221E-02 0.30907E-02 0.31338E-02 0.30907E-02
 0.34221E-02 0.51828E-02 0.95890E-02 0.18028E-01 0.41353E-01 0.13679     0.43143     0.78759     0.95314     0.99317    
 0.99908     0.99984     0.99997      1.0000      1.0000      1.0000      1.0000      1.0000      1.0000      1.0000    
 0.99997     0.99984     0.99908     0.99317     0.95314     0.78759     0.43143     0.13679     0.41353E-01 0.18028E-01
 0.95890E-02 0.51828E-02 0.34221E-02 0.30907E-02 0.31338E-02 0.30907E-02 0.34221E-02 0.51828E-02 0.95890E-02 0.18028E-01
 0.41353E-01 0.13679     0.43143     0.78759     0.95314     0.99317     0.99908     0.99984     0.99997      1.0000    
  1.0000      1.0000      1.0000      1.0000      1.0000     0.99999     0.99996     0.99980     0.99880     0.99118    
 0.94323     0.76383     0.41274     0.13360     0.41581E-01 0.18100E-01 0.93722E-02 0.50284E-02 0.33678E-02 0.30560E-02
 0.30907E-02 0.30560E-02 0.33678E-02 0.50284E-02 0.93722E-02 0.18100E-01 0.41581E-01 0.13360     0.41274     0.76383    
 0.94323     0.99118     0.99880     0.99980     0.99996     0.99999      1.0000      1.0000      1.0000      1.0000    
  1.0000     0.99999     0.99993     0.99962     0.99758     0.98362     0.91229     0.69659     0.34834     0.11158    
 0.36764E-01 0.16349E-01 0.84164E-02 0.47880E-02 0.35394E-02 0.33678E-02 0.34221E-02 0.33678E-02 0.35394E-02 0.47880E-02
 0.84164E-02 0.16349E-01 0.36764E-01 0.11158     0.34834     0.69659     0.91229     0.98362     0.99758     0.99962    
 0.99993     0.99999      1.0000      1.0000      1.0000     0.99999     0.99999     0.99995     0.99979     0.99891    
 0.99372     0.96536     0.85201     0.56981     0.23054     0.69140E-01 0.25274E-01 0.12621E-01 0.74099E-02 0.52163E-02
 0.47880E-02 0.50284E-02 0.51828E-02 0.50284E-02 0.47880E-02 0.52163E-02 0.74099E-02 0.12621E-01 0.25274E-01 0.69140E-01
 0.23054     0.56981     0.85201     0.96536     0.99372     0.99891     0.99979     0.99995     0.99999     0.99999    
 0.99997     0.99996     0.99993     0.99979     0.99917     0.99617     0.98173     0.92058     0.72207     0.36027    
 0.11170     0.35832E-01 0.16940E-01 0.10787E-01 0.80058E-02 0.74099E-02 0.84164E-02 0.93722E-02 0.95890E-02 0.93722E-02
 0.84164E-02 0.74099E-02 0.80058E-02 0.10787E-01 0.16940E-01 0.35832E-01 0.11170     0.36027     0.72207     0.92058    
 0.98173     0.99617     0.99917     0.99979     0.99993     0.99996     0.99984     0.99980     0.99962     0.99891    
 0.99617     0.98522     0.94228     0.79469     0.46397     0.16064     0.49403E-01 0.21643E-01 0.14471E-01 0.11700E-01
 0.10787E-01 0.12621E-01 0.16349E-01 0.18100E-01 0.18028E-01 0.18100E-01 0.16349E-01 0.12621E-01 0.10787E-01 0.11700E-01
 0.14471E-01 0.21643E-01 0.49403E-01 0.16064     0.46397     0.79469     0.94228     0.98522     0.99617     0.99891    
 0.99962     0.99980     0.99908     0.99880     0.99758     0.99372     0.98173     0.94228     0.81308     0.51168    
 0.19971     0.64381E-01 0.26658E-01 0.17216E-01 0.14960E-01 0.14471E-01 0.16940E-01 0.25274E-01 0.36764E-01 0.41581E-01
 0.41353E-01 0.41581E-01 0.36764E-01 0.25274E-01 0.16940E-01 0.14471E-01 0.14960E-01 0.17216E-01 0.26658E-01 0.64381E-01
 0.19971     0.51168     0.81308     0.94228     0.98173     0.99372     0.99758     0.99880     0.99317     0.99118    
 0.98362     0.96536     0.92058     0.79469     0.51168     0.21320     0.74442E-01 0.31012E-01 0.18848E-01 0.16359E-01
 0.17216E-01 0.21643E-01 0.35832E-01 0.69140E-01 0.11158     0.13360     0.13679     0.13360     0.11158     0.69140E-01
 0.35832E-01 0.21643E-01 0.17216E-01 0.16359E-01 0.18848E-01 0.31012E-01 0.74442E-01 0.21320     0.51168     0.79469    
 0.92058     0.96536     0.98362     0.99118     0.95314     0.94323     0.91229     0.85201     0.72207     0.46397    
 0.19971     0.74442E-01 0.32811E-01 0.19801E-01 0.16828E-01 0.18848E-01 0.26658E-01 0.49403E-01 0.11170     0.23054    
 0.34834     0.41274     0.43143     0.41274     0.34834     0.23054     0.11170     0.49403E-01 0.26658E-01 0.18848E-01
 0.16828E-01 0.19801E-01 0.32811E-01 0.74442E-01 0.19971     0.46397     0.72207     0.85201     0.91229     0.94323    
 0.78759     0.76383     0.69659     0.56981     0.36027     0.16064     0.64381E-01 0.31012E-01 0.19801E-01 0.17026E-01
 0.19801E-01 0.31012E-01 0.64381E-01 0.16064     0.36027     0.56981     0.69659     0.76383     0.78759     0.76383    
 0.69659     0.56981     0.36027     0.16064     0.64381E-01 0.31012E-01 0.19801E-01 0.17026E-01 0.19801E-01 0.31012E-01
 0.64381E-01 0.16064     0.36027     0.56981     0.69659     0.76383     0.43143     0.41274     0.34834     0.23054    
 0.11170     0.49403E-01 0.26658E-01 0.18848E-01 0.16828E-01 0.19801E-01 0.32811E-01 0.74442E-01 0.19971     0.46397    
 0.72207     0.85201     0.91229     0.94323     0.95314     0.94323     0.91229     0.85201     0.72207     0.46397    
 0.19971     0.74442E-01 0.32811E-01 0.19801E-01 0.16828E-01 0.18848E-01 0.26658E-01 0.49403E-01 0.11170     0.23054    
 0.34834     0.41274     0.13679     0.13360     0.11158     0.69140E-01 0.35832E-01 0.21643E-01 0.17216E-01 0.16359E-01
 0.18848E-01 0.31012E-01 0.74442E-01 0.21320     0.51168     0.79469     0.92058     0.96536     0.98362     0.99118    
 0.99317     0.99118     0.98362     0.96536     0.92058     0.79469     0.51168     0.21320     0.74442E-01 0.31012E-01
 0.18848E-01 0.16359E-01 0.17216E-01 0.21643E-01 0.35832E-01 0.69140E-01 0.11158     0.13360     0.41353E-01 0.41581E-01
 0.36764E-01 0.25274E-01 0.16940E-01 0.14471E-01 0.14960E-01 0.17216E-01 0.26658E-01 0.64381E-01 0.19971     0.51168    
 0.81308     0.94228     0.98173     0.99372     0.99758     0.99880     0.99908     0.99880     0.99758     0.99372    
 0.98173     0.94228     0.81308     0.51168     0.19971     0.64381E-01 0.26658E-01 0.17216E-01 0.14960E-01 0.14471E-01
 0.16940E-01 0.25274E-01 0.36764E-01 0.41581E-01 0.18028E-01 0.18100E-01 0.16349E-01 0.12621E-01 0.10787E-01 0.11700E-01
 0.14471E-01 0.21643E-01 0.49403E-01 0.16064     0.46397     0.79469     0.94228     0.98522     0.99617     0.99891    
 0.99962     0.99980     0.99984     0.99980     0.99962     0.99891     0.99617     0.98522     0.94228     0.79469    
 0.46397     0.16064     0.49403E-01 0.21643E-01 0.14471E-01 0.11700E-01 0.10787E-01 0.12621E-01 0.16349E-01 0.18100E-01
 0.95890E-02 0.93722E-02 0.84164E-02 0.74099E-02 0.80058E-02 0.10787E-01 0.16940E-01 0.35832E-01 0.11170     0.36027    
 0.72207     0.92058     0.98173     0.99617     0.99917     0.99979     0.99993     0.99996     0.99997     0.99996    
 0.99993     0.99979     0.99917     0.99617     0.98173     0.92058     0.72207     0.36027     0.11170     0.35832E-01
 0.16940E-01 0.10787E-01 0.80058E-02 0.74099E-02 0.84164E-02 0.93722E-02 0.51828E-02 0.50284E-02 0.47880E-02 0.52163E-02
 0.74099E-02 0.12621E-01 0.25274E-01 0.69140E-01 0.23054     0.56981     0.85201     0.96536     0.99372     0.99891    
 0.99979     0.99995     0.99999     0.99999      1.0000     0.99999     0.99999     0.99995     0.99979     0.99891    
 0.99372     0.96536     0.85201     0.56981     0.23054     0.69140E-01 0.25274E-01 0.12621E-01 0.74099E-02 0.52163E-02
 0.47880E-02 0.50284E-02 0.34221E-02 0.33678E-02 0.35394E-02 0.47880E-02 0.84164E-02 0.16349E-01 0.36764E-01 0.11158    
 0.34834     0.69659     0.91229     0.98362     0.99758     0.99962     0.99993     0.99999      1.0000      1.0000    
  1.0000      1.0000      1.0000     0.99999     0.99993     0.99962     0.99758     0.98362     0.91229     0.69659    
 0.34834     0.11158     0.36764E-01 0.16349E-01 0.84164E-02 0.47880E-02 0.35394E-02 0.33678E-02 0.30907E-02 0.30560E-02
 0.33678E-02 0.50284E-02 0.93722E-02 0.18100E-01 0.41581E-01 0.13360     0.41274     0.76383     0.94323     0.99118    
 0.99880     0.99980     0.99996     0.99999      1.0000      1.0000      1.0000      1.0000      1.0000     0.99999    
 0.99996     0.99980     0.99880     0.99118     0.94323     0.76383     0.41274     0.13360     0.41581E-01 0.18100E-01
 0.93722E-02 0.50284E-02 0.33678E-02 0.30560E-02 0.31338E-02 0.30907E-02 0.34221E-02 0.51828E-02 0.95890E-02 0.18028E-01
 0.41353E-01 0.13679     0.43143     0.78759     0.95314     0.99317     0.99908     0.99984     0.99997      1.0000    
  1.0000      1.0000      1.0000      1.0000      1.0000      1.0000     0.99997     0.99984     0.99908     0.99317    
 0.95314     0.78759     0.43143     0.13679     0.41353E-01 0.18028E-01 0.95890E-02 0.51828E-02 0.34221E-02 0.30907E-02
 0.30907E-02 0.30560E-02 0.33678E-02 0.50284E-02 0.93722E-02 0.18100E-01 0.41581E-01 0.13360     0.41274     0.76383    
 0.94323     0.99118     0.99880     0.99980     0.99996     0.99999      1.0000      1.0000      1.0000      1.0000    
  1.0000     0.99999     0.99996     0.99980     0.99880     0.99118     0.94323     0.76383     0.41274     0.13360    
 0.41581E-01 0.18100E-01 0.93722E-02 0.50284E-02 0.33678E-02 0.30560E-02 0.34221E-02 0.33678E-02 0.35394E-02 0.47880E-02
 0.84164E-02 0.16349E-01 0.36764E-01 0.11158     0.34834     0.69659     0.91229     0.98362     0.99758     0.99962    
 0.99993     0.99999      1.0000      1.0000      1.0000      1.0000      1.0000     0.99999     0.99993     0.99962    
 0.99758     0.98362     0.91229     0.69659     0.34834     0.11158     0.36764E-01 0.16349E-01 0.84164E-02 0.47880E-02
 0.35394E-02 0.33678E-02 0.51828E-02 0.50284E-02 0.47880E-02 0.52163E-02 0.74099E-02 0.12621E-01 0.25274E-01 0.69140E-01
 0.23054     0.56981     0.85201     0.96536     0.99372     0.99891     0.99979     0.99995     0.99999     0.99999    
  1.0000     0.99999     0.99999     0.99995     0.99979     0.99891     0.99372     0.96536     0.85201     0.56981    
 0.23054     0.69140E-01 0.25274E-01 0.12621E-01 0.74099E-02 0.52163E-02 0.47880E-02 0.50284E-02 0.95890E-02 0.93722E-02
 0.84164E-02 0.74099E-02 0.80058E-02 0.10787E-01 0.16940E-01 0.35832E-01 0.11170     0.36027     0.72207     0.92058    
 0.98173     0.99617     0.99917     0.99979     0.99993     0.99996     0.99997     0.99996     0.99993     0.99979    
 0.99917     0.99617     0.98173     0.92058     0.72207     0.36027     0.11170     0.35832E-01 0.16940E-01 0.10787E-01
 0.80058E-02 0.74099E-02 0.84164E-02 0.93722E-02 0.18028E-01 0.18100E-01 0.16349E-01 0.12621E-01 0.10787E-01 0.11700E-01
 0.14471E-01 0.21643E-01 0.49403E-01 0.16064     0.46397     0.79469     0.94228     0.98522     0.99617     0.99891    
 0.99962     0.99980     0.99984     0.99980     0.99962     0.99891     0.99617     0.98522     0.94228     0.79469    
 0.46397     0.16064     0.49403E-01 0.21643E-01 0.14471E-01 0.11700E-01 0.10787E-01 0.12621E-01 0.16349E-01 0.18100E-01
 0.41353E-01 0.41581E-01 0.36764E-01 0.25274E-01 0.16940E-01 0.14471E-01 0.14960E-01 0.17216E-01 0.26658E-01 0.64381E-01
 0.19971     0.51168     0.81308     0.94228     0.98173     0.99372     0.99758     0.99880     0.99908     0.99880    
 0.99758     0.99372     0.98173     0.94228     0.81308     0.51168     0.19971     0.64381E-01 0.26658E-01 0.17216E-01
 0.14960E-01 0.14471E-01 0.16940E-01 0.25274E-01 0.36764E-01 0.41581E-01 0.13679     0.13360     0.11158     0.69140E-01
 0.35832E-01 0.21643E-01 0.17216E-01 0.16359E-01 0.18848E-01 0.31012E-01 0.74442E-01 0.21320     0.51168     0.79469    
 0.92058     0.96536     0.98362     0.99118     0.99317     0.99118     0.98362     0.96536     0.92058     0.79469    
 0.51168     0.21320     0.74442E-01 0.31012E-01 0.18848E-01 0.16359E-01 0.17216E-01 0.21643E-01 0.35832E-01 0.69140E-01
 0.11158     0.13360     0.43143     0.41274     0.34834     0.23054     0.11170     0.49403E-01 0.26658E-01 0.18848E-01
 0.16828E-01 0.19801E-01 0.32811E-01 0.74442E-01 0.19971     0.46397     0.72207     0.85201     0.91229     0.94323    
 0.95314     0.94323     0.91229     0.85201     0.72207     0.46397     0.19971     0.74442E-01 0.32811E-01 0.19801E-01
 0.16828E-01 0.18848E-01 0.26658E-01 0.49403E-01 0.11170     0.23054     0.34834     0.41274     0.78759     0.76383    
 0.69659     0.56981     0.36027     0.16064     0.64381E-01 0.31012E-01 0.19801E-01 0.17026E-01 0.19801E-01 0.31012E-01
 0.64381E-01 0.16064     0.36027     0.56981     0.69659     0.76383     0.78759     0.76383     0.69659     0.56981    
 0.36027     0.16064     0.64381E-01 0.31012E-01 0.19801E-01 0.17026E-01 0.19801E-01 0.31012E-01 0.64381E-01 0.16064    
 0.36027     0.56981     0.69659     0.76383     0.95314     0.94323     0.91229     0.85201     0.72207     0.46397    
 0.19971     0.74442E-01 0.32811E-01 0.19801E-01 0.16828E-01 0.18848E-01 0.26658E-01 0.49403E-01 0.11170     0.23054    
 0.34834     0.41274     0.43143     0.41274     0.34834     0.23054     0.11170     0.49403E-01 0.26658E-01 0.18848E-01
 0.16828E-01 0.19801E-01 0.32811E-01 0.74442E-01 0.19971     0.46397     0.72207     0.85201     0.91229     0.94323    
 0.99317     0.99118     0.98362     0.96536     0.92058     0.79469     0.51168     0.21320     0.74442E-01 0.31012E-01
 0.18848E-01 0.16359E-01 0.17216E-01 0.21643E-01 0.35832E-01 0.69140E-01 0.11158     0.13360     0.13679     0.13360    
 0.11158     0.69140E-01 0.35832E-01 0.21643E-01 0.17216E-01 0.16359E-01 0.18848E-01 0.31012E-01 0.74442E-01 0.21320    
 0.51168     0.79469     0.92058     0.96536     0.98362     0.99118     0.99908     0.99880     0.99758     0.99372    
 0.98173     0.94228     0.81308     0.51168     0.19971     0.64381E-01 0.26658E-01 0.17216E-01 0.14960E-01 0.14471E-01
 0.16940E-01 0.25274E-01 0.36764E-01 0.41581E-01 0.41353E-01 0.41581E-01 0.36764E-01 0.25274E-01 0.16940E-01 0.14471E-01
 0.14960E-01 0.17216E-01 0.26658E-01 0.64381E-01 0.19971     0.51168     0.81308     0.94228     0.98173     0.99372    
 0.99758     0.99880     0.99984     0.99980     0.99962     0.99891     0.99617     0.98522     0.94228     0.79469    
 0.46397     0.16064     0.49403E-01 0.21643E-01 0.14471E-01 0.11700E-01 0.10787E-01 0.12621E-01 0.16349E-01 0.18100E-01
 0.18028E-01 0.18100E-01 0.16349E-01 0.12621E-01 0.10787E-01 0.11700E-01 0.14471E-01 0.21643E-01 0.49403E-01 0.16064    
 0.46397     0.79469     0.94228     0.98522     0.99617     0.99891     0.99962     0.99980     0.99997     0.99996    