Automatically generated mesh
      45
Reciprocal lattice
    0.00000000000000    0.00000000000000    0.00000000000000             1
    0.11111111111111    0.00000000000000    0.00000000000000             2
    0.22222222222222    0.00000000000000    0.00000000000000             2
    0.33333333333333    0.00000000000000    0.00000000000000             2
    0.44444444444444    0.00000000000000    0.00000000000000             2
    0.00000000000000    0.25000000000000    0.00000000000000             2
    0.11111111111111    0.25000000000000    0.00000000000000             4
    0.22222222222222    0.25000000000000    0.00000000000000             4
    0.33333333333333    0.25000000000000    0.00000000000000             4
    0.44444444444444    0.25000000000000    0.00000000000000             4
    0.00000000000000    0.50000000000000    0.00000000000000             1
    0.11111111111111    0.50000000000000    0.00000000000000             2
    0.22222222222222    0.50000000000000    0.00000000000000             2
    0.33333333333333    0.50000000000000    0.00000000000000             2
    0.44444444444444    0.50000000000000    0.00000000000000             2
    0.00000000000000    0.00000000000000    0.25000000000000             2
    0.11111111111111    0.00000000000000    0.25000000000000             4
    0.22222222222222    0.00000000000000    0.25000000000000             4
    0.33333333333333    0.00000000000000    0.25000000000000             4
    0.44444444444444    0.00000000000000    0.25000000000000             4
    0.00000000000000    0.25000000000000    0.25000000000000             4
    0.11111111111111    0.25000000000000    0.25000000000000             8
    0.22222222222222    0.25000000000000    0.25000000000000             8
    0.33333333333333    0.25000000000000    0.25000000000000             8
    0.44444444444444    0.25000000000000    0.25000000000000             8
    0.00000000000000    0.50000000000000    0.25000000000000             2
    0.11111111111111    0.50000000000000    0.25000000000000             4
    0.22222222222222    0.50000000000000    0.25000000000000             4
    0.33333333333333    0.50000000000000    0.25000000000000             4
    0.44444444444444    0.50000000000000    0.25000000000000             4
    0.00000000000000    0.00000000000000    0.50000000000000             1
    0.11111111111111    0.00000000000000    0.50000000000000             2
    0.22222222222222    0.00000000000000    0.50000000000000             2
    0.33333333333333    0.00000000000000    0.50000000000000             2
    0.44444444444444    0.00000000000000    0.50000000000000             2
    0.00000000000000    0.25000000000000    0.50000000000000             2
    0.11111111111111    0.25000000000000    0.50000000000000             4
    0.22222222222222    0.25000000000000    0.50000000000000             4
    0.33333333333333    0.25000000000000    0.50000000000000             4
    0.44444444444444    0.25000000000000    0.50000000000000             4
    0.00000000000000    0.50000000000000    0.50000000000000             1
    0.11111111111111    0.50000000000000    0.50000000000000             2
    0.22222222222222    0.50000000000000    0.50000000000000             2
    0.33333333333333    0.50000000000000    0.50000000000000             2
    0.44444444444444    0.50000000000000    0.50000000000000             2
