Automatically generated mesh
      60
Reciprocal lattice
    0.00000000000000    0.00000000000000    0.00000000000000             1
    0.14285714285714    0.00000000000000    0.00000000000000             6
    0.28571428571429    0.00000000000000    0.00000000000000             6
    0.42857142857143    0.00000000000000    0.00000000000000             6
    0.14285714285714    0.14285714285714    0.00000000000000             6
    0.28571428571429    0.14285714285714    0.00000000000000             6
    0.42857142857143    0.14285714285714    0.00000000000000             6
   -0.42857142857143    0.14285714285714    0.00000000000000             6
   -0.28571428571429    0.14285714285714    0.00000000000000             6
   -0.14285714285714    0.14285714285714    0.00000000000000             6
    0.14285714285714    0.28571428571429    0.00000000000000             6
    0.28571428571429    0.28571428571429    0.00000000000000             6
    0.42857142857143    0.28571428571429    0.00000000000000             6
   -0.42857142857143    0.28571428571429    0.00000000000000             6
   -0.28571428571429    0.28571428571429    0.00000000000000             6
   -0.14285714285714    0.28571428571429    0.00000000000000             6
    0.14285714285714    0.42857142857143    0.00000000000000             6
    0.28571428571429    0.42857142857143    0.00000000000000             6
    0.42857142857143    0.42857142857143    0.00000000000000             6
   -0.42857142857143    0.42857142857143    0.00000000000000             6
   -0.28571428571429    0.42857142857143    0.00000000000000             6
   -0.14285714285714    0.42857142857143    0.00000000000000             6
    0.14285714285714    0.14285714285714    0.14285714285714             2
    0.28571428571429    0.14285714285714    0.14285714285714             6
    0.42857142857143    0.14285714285714    0.14285714285714             6
   -0.42857142857143    0.14285714285714    0.14285714285714             6
   -0.28571428571429    0.14285714285714    0.14285714285714             6
   -0.14285714285714    0.14285714285714    0.14285714285714             6
    0.28571428571429    0.28571428571429    0.14285714285714             6
    0.42857142857143    0.28571428571429    0.14285714285714             6
   -0.42857142857143    0.28571428571429    0.14285714285714             6
   -0.28571428571429    0.28571428571429    0.14285714285714             6
   -0.14285714285714    0.28571428571429    0.14285714285714             6
    0.28571428571429    0.42857142857143    0.14285714285714             6
    0.42857142857143    0.42857142857143    0.14285714285714             6
   -0.42857142857143    0.42857142857143    0.14285714285714             6
   -0.28571428571429    0.42857142857143    0.14285714285714             6
   -0.14285714285714    0.42857142857143    0.14285714285714             6
    0.28571428571429   -0.42857142857143    0.14285714285714             6
    0.42857142857143   -0.42857142857143    0.14285714285714             6
   -0.42857142857143   -0.42857142857143    0.14285714285714             6
   -0.28571428571429   -0.42857142857143    0.14285714285714             6
   -0.14285714285714   -0.42857142857143    0.14285714285714             6
    0.28571428571429   -0.28571428571429    0.14285714285714             6
    0.42857142857143   -0.28571428571429    0.14285714285714             6
   -0.42857142857143   -0.28571428571429    0.14285714285714             6
   -0.28571428571429   -0.28571428571429    0.14285714285714             6
   -0.14285714285714   -0.28571428571429    0.14285714285714             6
    0.28571428571429    0.28571428571429    0.28571428571429             2
    0.42857142857143    0.28571428571429    0.28571428571429             6
   -0.42857142857143    0.28571428571429    0.28571428571429             6
   -0.28571428571429    0.28571428571429    0.28571428571429             6
    0.42857142857143    0.42857142857143    0.28571428571429             6
   -0.42857142857143    0.42857142857143    0.28571428571429             6
   -0.28571428571429    0.42857142857143    0.28571428571429             6
    0.42857142857143   -0.42857142857143    0.28571428571429             6
   -0.42857142857143   -0.42857142857143    0.28571428571429             6
   -0.28571428571429   -0.42857142857143    0.28571428571429             6
    0.42857142857143    0.42857142857143    0.42857142857143             2
   -0.42857142857143    0.42857142857143    0.42857142857143             6
