       N       E                     dE             d eps       ncg     rms          rms(c)
DAV:   1     0.422347283799E+03    0.42235E+03   -0.20630E+04  4200   0.125E+03
DAV:   2    -0.681550140635E+01   -0.42916E+03   -0.41742E+03  4215   0.372E+02
DAV:   3    -0.443763992153E+02   -0.37561E+02   -0.36243E+02  6950   0.107E+02
DAV:   4    -0.471106734208E+02   -0.27343E+01   -0.26944E+01  6785   0.241E+01
DAV:   5    -0.472141043547E+02   -0.10343E+00   -0.10323E+00  6780   0.396E+00    0.303E+01
DAV:   6    -0.670853065993E+02   -0.19871E+02   -0.25809E+02  6130   0.123E+02    0.492E+01
DAV:   7    -0.404250094398E+02    0.26660E+02   -0.86455E+01  6170   0.112E+02    0.104E+01
DAV:   8    -0.414089497819E+02   -0.98394E+00   -0.20094E+01  6940   0.229E+01    0.930E+00
DAV:   9    -0.409005288826E+02    0.50842E+00   -0.46530E+00  6600   0.157E+01    0.266E+00
DAV:  10    -0.408623931127E+02    0.38136E-01   -0.14790E-01  6165   0.224E+00    0.160E+00
DAV:  11    -0.408487437748E+02    0.13649E-01   -0.49844E-02  6665   0.986E-01    0.578E-01
DAV:  12    -0.408489269313E+02   -0.18316E-03   -0.31570E-03  6085   0.304E-01    0.436E-01
DAV:  13    -0.408485335006E+02    0.39343E-03   -0.13288E-03  6340   0.228E-01    0.184E-01
DAV:  14    -0.408484474593E+02    0.86041E-04   -0.40572E-04  6560   0.117E-01    0.685E-02
DAV:  15    -0.408484398430E+02    0.76163E-05   -0.76288E-05  5655   0.563E-02
   1 F= -.40848440E+02 E0= -.40848292E+02  d E =-.408484E+02
       N       E                     dE             d eps       ncg     rms          rms(c)
DAV:   1    -0.426839339096E+02   -0.18355E+01   -0.26363E+01  4740   0.480E+01    0.980E+00
DAV:   2    -0.493796131064E+02   -0.66957E+01   -0.75581E+01  7250   0.586E+01    0.306E+01
DAV:   3    -0.417027998498E+02    0.76768E+01   -0.49031E+01  6315   0.396E+01    0.440E+00
DAV:   4    -0.416468705628E+02    0.55929E-01   -0.20328E+00  7100   0.927E+00    0.905E-01
DAV:   5    -0.416351423966E+02    0.11728E-01   -0.13740E-01  5920   0.263E+00    0.119E+00
DAV:   6    -0.416247936256E+02    0.10349E-01   -0.34408E-02  7375   0.983E-01    0.488E-01
DAV:   7    -0.416236589738E+02    0.11347E-02   -0.66263E-03  7410   0.421E-01    0.205E-01
DAV:   8    -0.416235028760E+02    0.15610E-03   -0.22295E-03  7600   0.229E-01    0.730E-02
DAV:   9    -0.416234381467E+02    0.64729E-04   -0.26239E-04  5830   0.809E-02    0.226E-02
DAV:  10    -0.416234383980E+02   -0.25132E-06   -0.53031E-05  6265   0.324E-02
   2 F= -.41623438E+02 E0= -.41623200E+02  d E =-.774999E+00
       N       E                     dE             d eps       ncg     rms          rms(c)
DAV:   1    -0.446031449798E+02   -0.29797E+01   -0.58116E+01  4825   0.703E+01    0.152E+01
DAV:   2    -0.640038354932E+02   -0.19401E+02   -0.22123E+02  7745   0.950E+01    0.475E+01
DAV:   3    -0.420474220661E+02    0.21956E+02   -0.11443E+02  6070   0.506E+01    0.522E+00
DAV:   4    -0.422175353614E+02   -0.17011E+00   -0.48726E+00  7085   0.108E+01    0.160E+00
DAV:   5    -0.421910745891E+02    0.26461E-01   -0.36757E-01  6100   0.393E+00    0.196E+00
DAV:   6    -0.421659174298E+02    0.25157E-01   -0.84983E-02  8100   0.164E+00    0.824E-01
DAV:   7    -0.421635211959E+02    0.23962E-02   -0.92520E-03  6405   0.529E-01    0.463E-01
DAV:   8    -0.421628812981E+02    0.63990E-03   -0.86056E-03  7625   0.438E-01    0.101E-01
DAV:   9    -0.421628687954E+02    0.12503E-04   -0.67000E-04  6250   0.177E-01    0.620E-02
DAV:  10    -0.421628317757E+02    0.37020E-04   -0.28465E-04  6285   0.114E-01    0.130E-02
DAV:  11    -0.421628294554E+02    0.23203E-05   -0.11818E-05  3195   0.206E-02
   3 F= -.42162829E+02 E0= -.42162592E+02  d E =-.539391E+00
