 vasp.5.4.4.18Apr17-6-g9f103f2a35 (build Apr 24 2023 09:55:28) complex          
  
 executed on             LinuxIFC date 2024.04.24  03:52:13
 running on   35 total cores
 distrk:  each k-point on   35 cores,    1 groups
 distr:  one band on NCORES_PER_BAND=   7 cores,    5 groups


--------------------------------------------------------------------------------------------------------


 INCAR:
 POTCAR:    PAW_PBE Zr_sv 04Jan2005               
 POTCAR:    PAW_PBE Ni 02Aug2007                  
 POTCAR:    PAW_PBE H 15Jun2001                   
 POTCAR:    PAW_PBE Zr_sv 04Jan2005               
   VRHFIN =Zr: 4s4p5s4d                                                         
   LEXCH  = PE                                                                  
   EATOM  =  1284.2219 eV,   94.3876 Ry                                         
                                                                                
   TITEL  = PAW_PBE Zr_sv 04Jan2005                                             
   LULTRA =        F    use ultrasoft PP ?                                      
   IUNSCR =        1    unscreen: 0-lin 1-nonlin 2-no                           
   RPACOR =    2.200    partial core radius                                     
   POMASS =   91.224; ZVAL   =   12.000    mass and valenz                      
   RCORE  =    2.500    outmost cutoff radius                                   
   RWIGS  =    3.070; RWIGS  =    1.625    wigner-seitz radius (au A)           
   ENMAX  =  229.898; ENMIN  =  172.424 eV                                      
   ICORE  =        3    local potential                                         
   LCOR   =        T    correct aug charges                                     
   LPAW   =        T    paw PP                                                  
   EAUG   =  461.257                                                            
   DEXC   =    0.000                                                            
   RMAX   =    2.561    core radius for proj-oper                               
   RAUG   =    1.300    factor for augmentation sphere                          
   RDEP   =    2.597    radius for radial grids                                 
   RDEPT  =    2.007    core radius for aug-charge                              
                                                                                
   Atomic configuration                                                         
   11 entries                                                                   
     n  l   j            E        occ.                                          
     1  0  0.50    -17820.0161   2.0000                                         
     2  0  0.50     -2467.0882   2.0000                                         
     2  1  1.50     -2199.6095   6.0000                                         
     3  0  0.50      -402.4863   2.0000                                         
     3  1  1.50      -315.3675   6.0000                                         
     3  2  2.50      -172.4472  10.0000                                         
     4  0  0.50       -52.4146   2.0000                                         
     5  0  0.50        -3.8421   1.0000                                         
     4  1  1.50       -30.5054   6.0000                                         
     4  2  2.50        -2.3341   3.0000                                         
     4  3  2.50        -1.3606   0.0000                                         
   Description                                                                  
     l       E           TYP  RCUT    TYP  RCUT                                 
     0    -52.4145962     23  2.200                                             
     0     -3.8421270     23  2.500                                             
     1    -30.5053914     23  2.200                                             
     1     20.4087390     23  2.200                                             
     2     -2.3340816     23  2.500                                             
     2     -0.6120942     23  2.500                                             
     3     -4.0817478     23  2.500                                             
  local pseudopotential read in
  partial core-charges read in
  partial kinetic energy density read in
  atomic valenz-charges read in
  non local Contribution for L=           0  read in
    real space projection operators read in
  non local Contribution for L=           0  read in
    real space projection operators read in
  non local Contribution for L=           1  read in
    real space projection operators read in
  non local Contribution for L=           1  read in
    real space projection operators read in
  non local Contribution for L=           2  read in
    real space projection operators read in
  non local Contribution for L=           2  read in
    real space projection operators read in
    PAW grid and wavefunctions read in
 
   number of l-projection  operators is LMAX  =           6
   number of lm-projection operators is LMMAX =          18
 
 POTCAR:    PAW_PBE Ni 02Aug2007                  
   VRHFIN =Ni:                                                                  
   LEXCH  = PE                                                                  
   EATOM  =  1077.6739 eV,   79.2068 Ry                                         
                                                                                
   TITEL  = PAW_PBE Ni 02Aug2007                                                
   LULTRA =        F    use ultrasoft PP ?                                      
   IUNSCR =        1    unscreen: 0-lin 1-nonlin 2-no                           
   RPACOR =    2.000    partial core radius                                     
   POMASS =   58.690; ZVAL   =   10.000    mass and valenz                      
   RCORE  =    2.300    outmost cutoff radius                                   
   RWIGS  =    2.430; RWIGS  =    1.286    wigner-seitz radius (au A)           
   ENMAX  =  269.532; ENMIN  =  202.149 eV                                      
   RCLOC  =    1.201    cutoff for local pot                                    
   LCOR   =        T    correct aug charges                                     
   LPAW   =        T    paw PP                                                  
   EAUG   =  544.565                                                            
   DEXC   =    0.000                                                            
   RMAX   =    2.357    core radius for proj-oper                               
   RAUG   =    1.300    factor for augmentation sphere                          
   RDEP   =    2.390    radius for radial grids                                 
   RDEPT  =    1.838    core radius for aug-charge                              
                                                                                
   Atomic configuration                                                         
    9 entries                                                                   
     n  l   j            E        occ.                                          
     1  0  0.50     -8206.4253   2.0000                                         
     2  0  0.50      -976.1748   2.0000                                         
     2  1  1.50      -839.0571   6.0000                                         
     3  0  0.50      -105.9991   2.0000                                         
     3  1  1.50       -66.4603   6.0000                                         
     3  2  2.50        -4.6458   9.0000                                         
     4  0  0.50        -4.4926   1.0000                                         
     4  1  1.50        -4.0817   0.0000                                         
     4  3  2.50        -1.3606   0.0000                                         
   Description                                                                  
     l       E           TYP  RCUT    TYP  RCUT                                 
     2     -4.6457903     23  2.300                                             
     2     -6.0063729     23  2.300                                             
     0     -4.4925590     23  2.300                                             
     0      5.0102601     23  2.300                                             
     1     -2.7211652     23  2.300                                             
     1     16.5183231     23  2.300                                             
  local pseudopotential read in
  partial core-charges read in
  partial kinetic energy density read in
  atomic valenz-charges read in
  non local Contribution for L=           2  read in
    real space projection operators read in
  non local Contribution for L=           2  read in
    real space projection operators read in
  non local Contribution for L=           0  read in
    real space projection operators read in
  non local Contribution for L=           0  read in
    real space projection operators read in
  non local Contribution for L=           1  read in
    real space projection operators read in
  non local Contribution for L=           1  read in
    real space projection operators read in
    PAW grid and wavefunctions read in
 
   number of l-projection  operators is LMAX  =           6
   number of lm-projection operators is LMMAX =          18
 
 POTCAR:    PAW_PBE H 15Jun2001                   
   VRHFIN =H: ultrasoft test                                                    
   LEXCH  = PE                                                                  
   EATOM  =    12.4884 eV,    0.9179 Ry                                         
                                                                                
   TITEL  = PAW_PBE H 15Jun2001                                                 
   LULTRA =        F    use ultrasoft PP ?                                      
   IUNSCR =        0    unscreen: 0-lin 1-nonlin 2-no                           
   RPACOR =    0.000    partial core radius                                     
   POMASS =    1.000; ZVAL   =    1.000    mass and valenz                      
   RCORE  =    1.100    outmost cutoff radius                                   
   RWIGS  =    0.700; RWIGS  =    0.370    wigner-seitz radius (au A)           
   ENMAX  =  250.000; ENMIN  =  200.000 eV                                      
   RCLOC  =    0.701    cutoff for local pot                                    
   LCOR   =        T    correct aug charges                                     
   LPAW   =        T    paw PP                                                  
   EAUG   =  400.000                                                            
   RMAX   =    1.123    core radius for proj-oper                               
   RAUG   =    1.200    factor for augmentation sphere                          
   RDEP   =    1.112    radius for radial grids                                 
   RDEPT  =    0.926    core radius for aug-charge                              
                                                                                
   Atomic configuration                                                         
    2 entries                                                                   
     n  l   j            E        occ.                                          
     1  0  0.50        -6.4927   1.0000                                         
     2  1  0.50        -3.4015   0.0000                                         
   Description                                                                  
     l       E           TYP  RCUT    TYP  RCUT                                 
     0     -6.4927494     23  1.100                                             
     0      6.8029130     23  1.100                                             
     1     -4.0817478     23  1.100                                             
  local pseudopotential read in
  atomic valenz-charges read in
  non local Contribution for L=           0  read in
    real space projection operators read in
  non local Contribution for L=           0  read in
    real space projection operators read in
  non local Contribution for L=           1  read in
    real space projection operators read in
    PAW grid and wavefunctions read in
 
   number of l-projection  operators is LMAX  =           3
   number of lm-projection operators is LMMAX =           5
 

 ----------------------------------------------------------------------------- 
|                                                                             |
|  ADVICE TO THIS USER RUNNING 'VASP/VAMP'   (HEAR YOUR MASTER'S VOICE ...):  |
|                                                                             |
|      You have a (more or less) 'large supercell' and for larger cells       |
|      it might be more efficient to use real space projection opertators     |
|      So try LREAL= Auto  in the INCAR   file.                               |
|      Mind:          For very  accurate calculation you might also keep the  |
|      reciprocal projection scheme          (i.e. LREAL=.FALSE.)             |
|                                                                             |
 ----------------------------------------------------------------------------- 

  PAW_PBE Zr_sv 04Jan2005               :
 energy of atom  1       EATOM=-1284.2219
 kinetic energy error for atom=    0.0075 (will be added to EATOM!!)
  PAW_PBE Ni 02Aug2007                  :
 energy of atom  2       EATOM=-1077.6739
 kinetic energy error for atom=    0.0101 (will be added to EATOM!!)
  PAW_PBE H 15Jun2001                   :
 energy of atom  3       EATOM=  -12.4884
 kinetic energy error for atom=    0.0098 (will be added to EATOM!!)
 
 
 POSCAR: Zr14 Ni20 H14                           
  positions in direct lattice
  No initial velocities read in
 exchange correlation table for  LEXCH =        8
   RHO(1)=    0.500       N(1)  =     2000
   RHO(2)=  100.500       N(2)  =     4000
 


--------------------------------------------------------------------------------------------------------


 ion  position               nearest neighbor table
   1  0.989  0.960  0.523-  46 1.96  33 2.53  20 2.69  30 2.86  23 3.00  18 3.02  26 3.15  27 3.21
                            16 3.22   5 3.24  32 3.24  14 3.28  29 3.31   3 3.34  14 3.49  12 3.68
   2  0.185  0.482  0.614-  40 2.05  41 2.29  29 2.61  23 2.66  33 2.67  27 2.75  21 2.79  10 3.04
                            22 3.10  24 3.18   7 3.34  20 3.36  12 3.44  12 3.58  10 3.83
   3  0.815  0.614  0.482-  36 2.05  39 2.29  30 2.61  16 2.66  20 2.67  32 2.75  34 2.79   5 3.04
                            15 3.10  17 3.18   1 3.34  33 3.36  13 3.44  13 3.58   5 3.83
   4  0.489  0.023  0.460-  45 1.96  25 2.53  19 2.69  22 2.86  31 3.00  21 3.02  34 3.15  17 3.21
                            28 3.22  12 3.24  24 3.24  11 3.28  15 3.31   9 3.34  11 3.49   5 3.68
   5  0.757  0.052  0.495-  36 1.99  15 2.62  17 2.68  30 2.69  18 2.74  16 2.88   3 3.04  31 3.08
                            32 3.13  34 3.19   1 3.24   8 3.44   8 3.58   4 3.68   3 3.83
   6  0.511  0.460  0.023-  35 1.96  19 2.53  25 2.69  15 2.86  28 3.00  34 3.02  21 3.15  24 3.21
                            31 3.22  13 3.24  17 3.24  11 3.28  22 3.31   8 3.34  11 3.49  10 3.68
   7  0.011  0.523  0.960-  38 1.96  20 2.53  33 2.69  29 2.86  16 3.00  26 3.02  18 3.15  32 3.21
                            23 3.22  10 3.24  27 3.24  14 3.28  30 3.31   2 3.34  14 3.49  13 3.68
   8  0.685  0.114  0.982-  43 2.05  48 2.29  15 2.61  31 2.66  25 2.67  17 2.75  18 2.79  13 3.04
                            30 3.10  32 3.18   6 3.34  19 3.36   5 3.44   5 3.58  13 3.83
   9  0.315  0.982  0.114-  47 2.05  42 2.29  22 2.61  28 2.66  19 2.67  24 2.75  26 2.79  12 3.04
                            29 3.10  27 3.18   4 3.34  25 3.36  10 3.44  10 3.58  12 3.83
  10  0.243  0.495  0.052-  40 1.99  22 2.62  24 2.68  29 2.69  26 2.74  23 2.88   2 3.04  28 3.08
                            27 3.13  21 3.19   7 3.24   9 3.44   9 3.58   6 3.68   2 3.83
  11  0.500  0.538  0.538-  35 2.03  45 2.03  41 2.15  39 2.15  24 2.44  17 2.44  21 2.63  34 2.63
                            28 2.91  31 2.91  15 3.09  22 3.09   4 3.28   6 3.28  25 3.36  19 3.36
  12  0.257  0.995  0.552-  47 1.99  29 2.62  27 2.68  22 2.69  21 2.74  28 2.88   9 3.04  23 3.08
                            24 3.13  26 3.19   4 3.24   2 3.44   2 3.58   1 3.68   9 3.83
  13  0.743  0.552  0.995-  43 1.99  30 2.62  32 2.68  15 2.69  34 2.74  31 2.88   8 3.04  16 3.08
                            17 3.13  18 3.19   6 3.24   3 3.44   3 3.58   7 3.68   8 3.83
  14  0.000  0.038  0.038-  38 2.03  46 2.03  42 2.15  48 2.15  27 2.44  32 2.44  18 2.63  26 2.63
                            16 2.91  23 2.91  29 3.09  30 3.09   1 3.28   7 3.28  20 3.36  33 3.36
  15  0.662  0.333  0.295-  36 1.77  39 1.80  17 2.33  34 2.47   8 2.61   5 2.62  13 2.69   6 2.86
                            16 3.06  11 3.09   3 3.10   4 3.31
  16  0.885  0.315  0.269-  20 2.54   3 2.66  33 2.86   5 2.88  14 2.91   7 3.00  15 3.06  13 3.08
                             1 3.22
  17  0.641  0.337  0.641-  36 1.65  39 1.73  15 2.33  11 2.44  25 2.64   5 2.68   8 2.75  13 3.13
                             3 3.18   4 3.21   6 3.24
  18  0.865  0.198  0.804-  48 1.56  38 1.56  33 2.43  30 2.47  14 2.63   5 2.74   8 2.79   1 3.02
                             7 3.15  13 3.19
  19  0.494  0.823  0.117-  45 1.62  44 1.86  34 2.43   6 2.53  28 2.54  24 2.64   9 2.67   4 2.69
                            25 2.74  31 2.86  11 3.36   8 3.36
  20  0.994  0.617  0.323-  46 1.62  37 1.86  26 2.43   7 2.53  16 2.54  32 2.64   3 2.67   1 2.69
                            33 2.74  23 2.86  14 3.36   2 3.36
  21  0.365  0.304  0.698-  41 1.56  35 1.56  25 2.43  22 2.47  11 2.63  12 2.74   2 2.79   4 3.02
                             6 3.15  10 3.19
  22  0.338  0.295  0.333-  40 1.77  41 1.80  24 2.33  21 2.47   9 2.61  10 2.62  12 2.69   4 2.86
                            23 3.06  11 3.09   2 3.10   6 3.31
  23  0.115  0.269  0.315-  33 2.54   2 2.66  20 2.86  10 2.88  14 2.91   1 3.00  22 3.06  12 3.08
                             7 3.22
  24  0.359  0.641  0.337-  40 1.65  41 1.73  22 2.33  11 2.44  19 2.64  10 2.68   9 2.75  12 3.13
                             2 3.18   6 3.21   4 3.24
  25  0.506  0.117  0.823-  35 1.62  44 1.86  21 2.43   4 2.53  31 2.54  17 2.64   8 2.67   6 2.69
                            19 2.74  28 2.86  11 3.36   9 3.36
  26  0.135  0.804  0.198-  42 1.56  46 1.56  20 2.43  29 2.47  14 2.63  10 2.74   9 2.79   7 3.02
                             1 3.15  12 3.19
  27  0.141  0.141  0.837-  47 1.65  42 1.73  29 2.33  14 2.44  33 2.64  12 2.68   2 2.75  10 3.13
                             9 3.18   1 3.21   7 3.24
  28  0.385  0.769  0.815-  19 2.54   9 2.66  25 2.86  12 2.88  11 2.91   6 3.00  29 3.06  10 3.08
                             4 3.22
  29  0.162  0.795  0.833-  47 1.77  42 1.80  27 2.33  26 2.47   2 2.61  12 2.62  10 2.69   7 2.86
                            28 3.06  14 3.09   9 3.10   1 3.31
  30  0.838  0.833  0.795-  43 1.77  48 1.80  32 2.33  18 2.47   3 2.61  13 2.62   5 2.69   1 2.86
                            31 3.06  14 3.09   8 3.10   7 3.31
  31  0.615  0.815  0.769-  25 2.54   8 2.66  19 2.86  13 2.88  11 2.91   4 3.00  30 3.06   5 3.08
                             6 3.22
  32  0.859  0.837  0.141-  43 1.65  48 1.73  30 2.33  14 2.44  20 2.64  13 2.68   3 2.75   5 3.13
                             8 3.18   7 3.21   1 3.24
  33  0.006  0.323  0.617-  38 1.62  37 1.86  18 2.43   1 2.53  23 2.54  27 2.64   2 2.67   7 2.69
                            20 2.74  16 2.86  14 3.36   3 3.36
  34  0.635  0.698  0.304-  39 1.56  45 1.56  19 2.43  15 2.47  11 2.63  13 2.74   3 2.79   6 3.02
                             4 3.15   5 3.19
  35  0.471  0.344  0.769-  21 1.56  25 1.62   6 1.96  11 2.03
  36  0.741  0.348  0.504-  17 1.65  15 1.77   5 1.99   3 2.05
  37  0.000  0.602  0.602-  33 1.86  20 1.86
  38  0.971  0.269  0.844-  18 1.56  33 1.62   7 1.96  14 2.03
  39  0.653  0.533  0.468-  34 1.56  17 1.73  15 1.80  11 2.15   3 2.29
  40  0.259  0.504  0.348-  24 1.65  22 1.77  10 1.99   2 2.05
  41  0.347  0.468  0.533-  21 1.56  24 1.73  22 1.80  11 2.15   2 2.29
  42  0.153  0.968  0.033-  26 1.56  27 1.73  29 1.80  14 2.15   9 2.29
  43  0.759  0.848  0.004-  32 1.65  30 1.77  13 1.99   8 2.05
  44  0.500  0.102  0.102-  19 1.86  25 1.86
  45  0.529  0.769  0.344-  34 1.56  19 1.62   4 1.96  11 2.03
  46  0.029  0.844  0.269-  26 1.56  20 1.62   1 1.96  14 2.03
  47  0.241  0.004  0.848-  27 1.65  29 1.77  12 1.99   9 2.05
  48  0.847  0.033  0.968-  18 1.56  32 1.73  30 1.80  14 2.15   8 2.29
 
  LATTYP: Found a base centered orthorhombic cell.
 ALAT       =     9.3189966917
 B/A-ratio  =     1.0280191792
 C/A-ratio  =     1.4692568796
  
  Lattice vectors:
  
 A1 = (   0.0000000000,   6.6799293464,   0.1846154841)
 A2 = (   0.0000000000,   0.0000000000,  -6.6824800000)
 A3 = ( -13.6920000000,   0.0000000000,  -0.0000000000)


Analysis of symmetry for initial positions (statically):
=====================================================================
 Subroutine PRICEL returns:
 Original cell was already a primitive cell.
 

 Routine SETGRP: Setting up the symmetry group for a 
 base centered orthorhombic supercell.


 Subroutine GETGRP returns: Found  4 space group operations
 (whereof  2 operations were pure point group operations)
 out of a pool of  8 trial point group operations.


The static configuration has the point symmetry C_2 .
 The point group associated with its full space group is C_2v.


Analysis of symmetry for dynamics (positions and initial velocities):
=====================================================================
 Subroutine PRICEL returns:
 Original cell was already a primitive cell.
 

 Routine SETGRP: Setting up the symmetry group for a 
 base centered orthorhombic supercell.


 Subroutine GETGRP returns: Found  4 space group operations
 (whereof  2 operations were pure point group operations)
 out of a pool of  8 trial point group operations.


The dynamic configuration has the point symmetry C_2 .
 The point group associated with its full space group is C_2v.


 Subroutine INISYM returns: Found  4 space group operations
 (whereof  2 operations are pure point group operations),
 and found     1 'primitive' translations

 
 
 KPOINTS: Automatic mesh                          

Automatic generation of k-mesh.
 generate k-points for:    2    4    4
Space group operators:
 irot       det(A)        alpha          n_x          n_y          n_z        tau_x        tau_y        tau_z
    1     1.000000     0.000000     1.000000     0.000000     0.000000     0.000000     0.000000     0.000000
    2     1.000000   180.000000     0.000000    -0.697271    -0.716808     0.000000     0.000000     0.000000
    3    -1.000000   180.000000     1.000000    -0.000000     0.000000    -0.500000     0.500000    -0.500000
    4    -1.000000   180.000000    -0.000000    -0.716808     0.697271    -0.500000     0.500000    -0.500000
 
 Subroutine IBZKPT returns following result:
 ===========================================
 
 Found     14 irreducible k-points:
 
 Following reciprocal coordinates:
            Coordinates               Weight
  0.000000  0.000000  0.000000      1.000000
  0.500000 -0.000000  0.000000      1.000000
  0.000000  0.250000  0.000000      4.000000
  0.500000  0.250000  0.000000      4.000000
  0.000000  0.500000  0.000000      2.000000
  0.500000  0.500000  0.000000      2.000000
  0.000000  0.250000  0.250000      2.000000
  0.500000  0.250000  0.250000      2.000000
  0.000000  0.500000  0.250000      4.000000
  0.500000  0.500000  0.250000      4.000000
  0.000000 -0.250000  0.250000      2.000000
  0.500000 -0.250000  0.250000      2.000000
  0.000000  0.500000  0.500000      1.000000
  0.500000  0.500000  0.500000      1.000000
 
 Following cartesian coordinates:
            Coordinates               Weight
  0.000000  0.000000  0.000000      1.000000
  0.036518 -0.000000  0.000000      1.000000
  0.000000  0.037426  0.000000      4.000000
  0.036518  0.037426  0.000000      4.000000
  0.000000  0.074851  0.000000      2.000000
  0.036518  0.074851  0.000000      2.000000
 -0.000000  0.036392  0.037411      2.000000
  0.036518  0.036392  0.037411      2.000000
 -0.000000  0.073817  0.037411      4.000000
  0.036518  0.073817  0.037411      4.000000
 -0.000000 -0.038459  0.037411      2.000000
  0.036518 -0.038459  0.037411      2.000000
 -0.000000  0.072783  0.074823      1.000000
  0.036518  0.072783  0.074823      1.000000
 


--------------------------------------------------------------------------------------------------------




 Dimension of arrays:
   k-points           NKPTS =     14   k-points in BZ     NKDIM =     14   number of bands    NBANDS=    230
   number of dos      NEDOS =    301   number of ions     NIONS =     48
   non local maximal  LDIM  =      6   non local SUM 2l+1 LMDIM =     18
   total plane-waves  NPLWV = 207360
   max r-space proj   IRMAX =      1   max aug-charges    IRDMAX=  14305
   dimension x,y,z NGX =    90 NGY =   48 NGZ =   48
   dimension x,y,z NGXF=   180 NGYF=   96 NGZF=   96
   support grid    NGXF=   180 NGYF=   96 NGZF=   96
   ions per type =              14  20  14
   NGX,Y,Z   is equivalent  to a cutoff of  10.93, 11.94, 11.94 a.u.
   NGXF,Y,Z  is equivalent  to a cutoff of  21.86, 23.88, 23.88 a.u.

 SYSTEM =  DFT routine                             
 POSCAR =  Zr14 Ni20 H14                           

 Startparameter for this run:
   NWRITE =      2    write-flag & timer
   PREC   = acc       normal or accurate (medium, high low for compatibility)
   ISTART =      0    job   : 0-new  1-cont  2-samecut
   ICHARG =      2    charge: 1-file 2-atom 10-const
   ISPIN  =      1    spin polarized calculation?
   LNONCOLLINEAR =      F non collinear calculations
   LSORBIT =      F    spin-orbit coupling
   INIWAV =      1    electr: 0-lowe 1-rand  2-diag
   LASPH  =      F    aspherical Exc in radial PAW
   METAGGA=      F    non-selfconsistent MetaGGA calc.

 Electronic Relaxation 1
   ENCUT  =  400.0 eV  29.40 Ry    5.42 a.u.  22.33 10.90 10.90*2*pi/ulx,y,z
   ENINI  =  400.0     initial cutoff
   ENAUG  =  544.6 eV  augmentation charge cutoff
   NELM   =    100;   NELMIN=  2; NELMDL= -5     # of ELM steps 
   EDIFF  = 0.1E-04   stopping-criterion for ELM
   LREAL  =      F    real-space projection
   NLSPLINE    = F    spline interpolate recip. space projectors
   LCOMPAT=      F    compatible to vasp.4.4
   GGA_COMPAT  = T    GGA compatible to vasp.4.4-vasp.4.6
   LMAXPAW     = -100 max onsite density
   LMAXMIX     =    2 max onsite mixed and CHGCAR
   VOSKOWN=      0    Vosko Wilk Nusair interpolation
   ROPT   =    0.00000   0.00000   0.00000
 Ionic relaxation
   EDIFFG = 0.1E-03   stopping-criterion for IOM
   NSW    =     10    number of steps for IOM
   NBLOCK =      1;   KBLOCK =     10    inner block; outer block 
   IBRION =      1    ionic relax: 0-MD 1-quasi-New 2-CG
   NFREE  =      0    steps in history (QN), initial steepest desc. (CG)
   ISIF   =      3    stress and relaxation
   IWAVPR =     11    prediction:  0-non 1-charg 2-wave 3-comb
   ISYM   =      2    0-nonsym 1-usesym 2-fastsym
   LCORR  =      T    Harris-Foulkes like correction to forces

   POTIM  = 0.1000    time-step for ionic-motion
   TEIN   =    0.0    initial temperature
   TEBEG  =    0.0;   TEEND  =   0.0 temperature during run
   SMASS  =  -3.00    Nose mass-parameter (am)
   estimated Nose-frequenzy (Omega)   =  0.10E-29 period in steps =****** mass=  -0.428E-26a.u.
   SCALEE = 1.0000    scale energy and forces
   NPACO  =    256;   APACO  = 16.0  distance and # of slots for P.C.
   PSTRESS=    0.0 pullay stress

  Mass of Ions in am
   POMASS =  91.22 58.69  1.00
  Ionic Valenz
   ZVAL   =  12.00 10.00  1.00
  Atomic Wigner-Seitz radii
   RWIGS  =  -1.00 -1.00 -1.00
  virtual crystal weights 
   VCA    =   1.00  1.00  1.00
   NELECT =     382.0000    total number of electrons
   NUPDOWN=      -1.0000    fix difference up-down

 DOS related values:
   EMIN   =  10.00;   EMAX   =-10.00  energy-range for DOS
   EFERMI =   0.00
   ISMEAR =     0;   SIGMA  =   0.01  broadening in eV -4-tet -1-fermi 0-gaus

 Electronic relaxation 2 (details)
   IALGO  =     38    algorithm
   LDIAG  =      T    sub-space diagonalisation (order eigenvalues)
   LSUBROT=      F    optimize rotation matrix (better conditioning)
   TURBO    =      0    0=normal 1=particle mesh
   IRESTART =      0    0=no restart 2=restart with 2 vectors
   NREBOOT  =      0    no. of reboots
   NMIN     =      0    reboot dimension
   EREF     =   0.00    reference energy to select bands
   IMIX   =      4    mixing-type and parameters
     AMIX     =   0.40;   BMIX     =  1.00
     AMIX_MAG =   1.60;   BMIX_MAG =  1.00
     AMIN     =   0.10
     WC   =   100.;   INIMIX=   1;  MIXPRE=   1;  MAXMIX= -45

 Intra band minimization:
   WEIMIN = 0.0010     energy-eigenvalue tresh-hold
   EBREAK =  0.11E-07  absolut break condition
   DEPER  =   0.30     relativ break condition  

   TIME   =   0.40     timestep for ELM

  volume/ion in A,a.u.               =      12.73        85.93
  Fermi-wavevector in a.u.,A,eV,Ry     =   1.399707  2.645063 26.656259  1.959180
  Thomas-Fermi vector in A             =   2.522740
 
 Write flags
   LWAVE        =      F    write WAVECAR
   LDOWNSAMPLE  =      F    k-point downsampling of WAVECAR
   LCHARG       =      F    write CHGCAR
   LVTOT        =      F    write LOCPOT, total local potential
   LVHAR        =      F    write LOCPOT, Hartree potential only
   LELF         =      F    write electronic localiz. function (ELF)
   LORBIT       =     10    0 simple, 1 ext, 2 COOP (PROOUT), +10 PAW based schemes


 Dipole corrections
   LMONO  =      F    monopole corrections only (constant potential shift)
   LDIPOL =      F    correct potential (dipole corrections)
   IDIPOL =      0    1-x, 2-y, 3-z, 4-all directions 
   EPSILON=  1.0000000 bulk dielectric constant

 Exchange correlation treatment:
   GGA     =    --    GGA type
   LEXCH   =     8    internal setting for exchange type
   VOSKOWN=      0    Vosko Wilk Nusair interpolation
   LHFCALC =     F    Hartree Fock is set to
   LHFONE  =     F    Hartree Fock one center treatment
   AEXX    =    0.0000 exact exchange contribution

 Linear response parameters
   LEPSILON=     F    determine dielectric tensor
   LRPA    =     F    only Hartree local field effects (RPA)
   LNABLA  =     F    use nabla operator in PAW spheres
   LVEL    =     F    velocity operator in full k-point grid
   LINTERFAST=   F  fast interpolation
   KINTER  =     0    interpolate to denser k-point grid
   CSHIFT  =0.1000    complex shift for real part using Kramers Kronig
   OMEGAMAX=  -1.0    maximum frequency
   DEG_THRESHOLD= 0.2000000E-02 threshold for treating states as degnerate
   RTIME   =   -0.100 relaxation time in fs
  (WPLASMAI=    0.000 imaginary part of plasma frequency in eV, 0.658/RTIME)
   DFIELD  = 0.0000000 0.0000000 0.0000000 field for delta impulse in time
 
 Orbital magnetization related:
   ORBITALMAG=     F  switch on orbital magnetization
   LCHIMAG   =     F  perturbation theory with respect to B field
   DQ        =  0.001000  dq finite difference perturbation B field
   LLRAUG    =     F  two centre corrections for induced B field



--------------------------------------------------------------------------------------------------------


 quasi-Newton-method for relaxation of ions
 charge density and potential will be updated during run
 non-spin polarized calculation
 Variant of blocked Davidson
 Davidson routine will perform the subspace rotation
 perform sub-space diagonalisation
    after iterative eigenvector-optimisation
 modified Broyden-mixing scheme, WC =      100.0
 initial mixing is a Kerker type mixing with AMIX =  0.4000 and BMIX =      1.0000
 Hartree-type preconditioning will be used
 using additional bands           39
 reciprocal scheme for non local part
 use partial core corrections
 calculate Harris-corrections to forces 
   (improved forces if not selfconsistent)
 use gradient corrections 
 use of overlap-Matrix (Vanderbilt PP)
 Gauss-broadening in eV      SIGMA  =   0.01


--------------------------------------------------------------------------------------------------------


  energy-cutoff  :      400.00
  volume of cell :      611.19
      direct lattice vectors                 reciprocal lattice vectors
    13.692000000  0.000000000  0.000000000     0.073035349 -0.000000000  0.000000000
     0.000000000  6.679929346  0.184615484     0.000000000  0.149702182  0.000000000
     0.000000000  0.000000000  6.682480000    -0.000000000 -0.004135791  0.149645042

  length of vectors
    13.692000000  6.682480000  6.682480000     0.073035349  0.149702182  0.149702182


 
 k-points in units of 2pi/SCALE and weight: Automatic mesh                          
   0.00000000  0.00000000  0.00000000       0.031
   0.03651767 -0.00000000  0.00000000       0.031
   0.00000000  0.03742555  0.00000000       0.125
   0.03651767  0.03742555  0.00000000       0.125
   0.00000000  0.07485109  0.00000000       0.062
   0.03651767  0.07485109  0.00000000       0.062
  -0.00000000  0.03639160  0.03741126       0.062
   0.03651767  0.03639160  0.03741126       0.062
  -0.00000000  0.07381714  0.03741126       0.125
   0.03651767  0.07381714  0.03741126       0.125
  -0.00000000 -0.03845949  0.03741126       0.062
   0.03651767 -0.03845949  0.03741126       0.062
  -0.00000000  0.07278320  0.07482252       0.031
   0.03651767  0.07278320  0.07482252       0.031
 
 k-points in reciprocal lattice and weights: Automatic mesh                          
   0.00000000  0.00000000  0.00000000       0.031
   0.50000000 -0.00000000  0.00000000       0.031
   0.00000000  0.25000000  0.00000000       0.125
   0.50000000  0.25000000  0.00000000       0.125
   0.00000000  0.50000000  0.00000000       0.062
   0.50000000  0.50000000  0.00000000       0.062
   0.00000000  0.25000000  0.25000000       0.062
   0.50000000  0.25000000  0.25000000       0.062
   0.00000000  0.50000000  0.25000000       0.125
   0.50000000  0.50000000  0.25000000       0.125
   0.00000000 -0.25000000  0.25000000       0.062
   0.50000000 -0.25000000  0.25000000       0.062
   0.00000000  0.50000000  0.50000000       0.031
   0.50000000  0.50000000  0.50000000       0.031
 
 position of ions in fractional coordinates (direct lattice) 
   0.98900000  0.95960000  0.52340000
   0.18480000  0.48170000  0.61350000
   0.81520000  0.61350000  0.48170000
   0.48900000  0.02340000  0.45960000
   0.75720000  0.05210000  0.49450000
   0.51100000  0.45960000  0.02340000
   0.01100000  0.52340000  0.95960000
   0.68480000  0.11350000  0.98170000
   0.31520000  0.98170000  0.11350000
   0.24280000  0.49450000  0.05210000
   0.50000000  0.53750000  0.53750000
   0.25720000  0.99450000  0.55210000
   0.74280000  0.55210000  0.99450000
   0.00000000  0.03750000  0.03750000
   0.66190000  0.33250000  0.29530000
   0.88500000  0.31490000  0.26850000
   0.64100000  0.33660000  0.64080000
   0.86490000  0.19790000  0.80390000
   0.49420000  0.82310000  0.11670000
   0.99420000  0.61670000  0.32310000
   0.36490000  0.30390000  0.69790000
   0.33810000  0.29530000  0.33250000
   0.11500000  0.26850000  0.31490000
   0.35900000  0.64080000  0.33660000
   0.50580000  0.11670000  0.82310000
   0.13510000  0.80390000  0.19790000
   0.14100000  0.14080000  0.83660000
   0.38500000  0.76850000  0.81490000
   0.16190000  0.79530000  0.83250000
   0.83810000  0.83250000  0.79530000
   0.61500000  0.81490000  0.76850000
   0.85900000  0.83660000  0.14080000
   0.00580000  0.32310000  0.61670000
   0.63510000  0.69790000  0.30390000
   0.47106000  0.34429000  0.76932000
   0.74101000  0.34794000  0.50425000
   0.00000000  0.60158000  0.60158000
   0.97106000  0.26932000  0.84429000
   0.65312000  0.53273000  0.46827000
   0.25899000  0.50425000  0.34794000
   0.34688000  0.46827000  0.53273000
   0.15312000  0.96827000  0.03273000
   0.75899000  0.84794000  0.00425000
   0.50000000  0.10158000  0.10158000
   0.52894000  0.76932000  0.34429000
   0.02894000  0.84429000  0.26932000
   0.24101000  0.00425000  0.84794000
   0.84688000  0.03273000  0.96827000
 
 position of ions in cartesian coordinates  (Angst):
  13.54138800  6.41006020  3.67476705
   2.53028160  3.21772197  4.18863076
  11.16171840  4.09813665  3.33221222
   6.69538800  0.15631035  3.07558781
  10.36758240  0.34802432  3.31410483
   6.99661200  3.07009553  0.24121931
   0.15061200  3.49627502  6.50913555
   9.37628160  0.75817198  6.58114447
   4.31571840  6.55768664  0.93969850
   3.32441760  3.30322506  0.43944956
   6.84600000  3.59046202  3.69106382
   3.52158240  6.64318974  3.87299731
  10.17041760  3.68798899  6.74765257
   0.00000000  0.25049735  0.25751608
   9.06273480  2.22107651  2.03472099
  12.11742000  2.10350975  1.85238130
   8.77657200  2.24846422  4.34427476
  11.84221080  1.32195802  5.40858108
   6.76658640  5.49824985  0.93180242
  13.61258640  4.11951243  2.27296166
   4.99621080  2.03003053  4.71980744
   4.62926520  1.97258314  2.27644155
   1.57458000  1.79356103  2.15388221
   4.91542800  4.28049873  2.36762437
   6.92541360  0.77954775  5.52189391
   1.84978920  5.36999520  1.47087518
   1.93057200  0.94053405  5.61655663
   5.27142000  5.13352570  5.58742995
   2.21673480  5.31254781  5.70998929
  11.47526520  5.56104118  5.46826873
   8.42058000  5.44347442  5.28592904
  11.76142800  5.58842889  1.09534250
   0.07941360  2.15828517  4.18073468
   8.69578920  4.66192269  2.15964882
   6.44975352  2.29983287  5.20452678
  10.14590892  2.32421462  3.43387565
   0.00000000  4.01851190  4.13110730
  13.29575352  1.79903857  5.69167168
   8.94251904  3.55859876  3.22755512
   3.54609108  3.36835437  2.41819445
   4.74948096  3.12801052  3.64640746
   2.09651904  6.46797519  0.39747521
  10.39209108  5.66417929  0.18494339
   6.84600000  0.67854722  0.69755956
   7.24224648  5.13900324  2.44273942
   0.39624648  5.63979755  1.95559452
   3.29990892  0.02838970  5.66712671
  11.59548096  0.21863409  6.47648737
 


--------------------------------------------------------------------------------------------------------


 k-point  1 :   0.0000 0.0000 0.0000  plane waves:   11069
 k-point  2 :   0.5000-0.0000 0.0000  plane waves:   11080
 k-point  3 :   0.0000 0.2500 0.0000  plane waves:   11089
 k-point  4 :   0.5000 0.2500 0.0000  plane waves:   11094
 k-point  5 :   0.0000 0.5000 0.0000  plane waves:   11106
 k-point  6 :   0.5000 0.5000 0.0000  plane waves:   11116
 k-point  7 :   0.0000 0.2500 0.2500  plane waves:   11094
 k-point  8 :   0.5000 0.2500 0.2500  plane waves:   11104
 k-point  9 :   0.0000 0.5000 0.2500  plane waves:   11097
 k-point 10 :   0.5000 0.5000 0.2500  plane waves:   11112
 k-point 11 :   0.0000-0.2500 0.2500  plane waves:   11117
 k-point 12 :   0.5000-0.2500 0.2500  plane waves:   11120
 k-point 13 :   0.0000 0.5000 0.5000  plane waves:   11120
 k-point 14 :   0.5000 0.5000 0.5000  plane waves:   11172

 maximum and minimum number of plane-waves per node :      1643     1546

 maximum number of plane-waves:     11172
 maximum index in each direction: 
   IXMAX=   22   IYMAX=   11   IZMAX=   10
   IXMIN=  -22   IYMIN=  -11   IZMIN=  -11


 parallel 3D FFT for wavefunctions:
    minimum data exchange during FFTs selected (reduces bandwidth)
 parallel 3D FFT for charge:
    minimum data exchange during FFTs selected (reduces bandwidth)


 total amount of memory used by VASP MPI-rank0    66130. kBytes
=======================================================================

   base      :      30000. kBytes
   nonl-proj :      10939. kBytes
   fftplans  :       2713. kBytes
   grid      :       4802. kBytes
   one-center:        108. kBytes
   wavefun   :      17568. kBytes
 
     INWAV:  cpu time    0.0000: real time    0.0000
 Broyden mixing: mesh for mixing (old mesh)
   NGX = 45   NGY = 21   NGZ = 21
  (NGX  =180   NGY  = 96   NGZ  = 96)
  gives a total of  19845 points

 initial charge density was supplied:
 charge density of overlapping atoms calculated
 number of electron     382.0000000 magnetization 
 keeping initial charge density in first step


--------------------------------------------------------------------------------------------------------


 Maximum index for augmentation-charges         1417 (set IRDMAX)


--------------------------------------------------------------------------------------------------------


 First call to EWALD:  gamma=   0.209
 Maximum number of real-space cells 2x 3x 3
 Maximum number of reciprocal cells 4x 2x 2

    FEWALD:  cpu time    0.0022: real time    0.0574


--------------------------------------- Iteration      1(   1)  ---------------------------------------


    POTLOK:  cpu time    0.0592: real time    0.0592
    SETDIJ:  cpu time    0.0071: real time    0.0071
     EDDAV:  cpu time   17.0384: real time   17.0420
       DOS:  cpu time    0.0034: real time    0.0034
    --------------------------------------------
      LOOP:  cpu time   17.1080: real time   17.1117

 eigenvalue-minimisations  :  6440
 total energy-change (2. order) : 0.4462030E+04  (-0.1410558E+05)
 number of electron     382.0000000 magnetization 
 augmentation part      382.0000000 magnetization 

 Free energy of the ion-electron system (eV)
  ---------------------------------------------------
  alpha Z        PSCENC =      1627.65284464
  Ewald energy   TEWEN  =    -31519.12507443
  -Hartree energ DENC   =     -9666.42749428
  -exchange      EXHF   =         0.00000000
  -V(xc)+E(xc)   XCENC  =      1368.53901619
  PAW double counting   =     33345.58952259   -34417.16318353
  entropy T*S    EENTRO =        -0.00070223
  eigenvalues    EBANDS =      4015.98610439
  atomic energy  EATOM  =     39706.97890092
  Solvation  Ediel_sol  =         0.00000000
  ---------------------------------------------------
  free energy    TOTEN  =      4462.02993426 eV

  energy without entropy =     4462.03063649  energy(sigma->0) =     4462.03028538


--------------------------------------------------------------------------------------------------------




--------------------------------------- Iteration      1(   2)  ---------------------------------------


     EDDAV:  cpu time   17.5439: real time   17.5471
       DOS:  cpu time    0.0032: real time    0.0032
    --------------------------------------------
      LOOP:  cpu time   17.5470: real time   17.5503

 eigenvalue-minimisations  :  6760
 total energy-change (2. order) :-0.4071095E+04  (-0.3925403E+04)
 number of electron     382.0000000 magnetization 
 augmentation part      382.0000000 magnetization 

 Free energy of the ion-electron system (eV)
  ---------------------------------------------------
  alpha Z        PSCENC =      1627.65284464
  Ewald energy   TEWEN  =    -31519.12507443
  -Hartree energ DENC   =     -9666.42749428
  -exchange      EXHF   =         0.00000000
  -V(xc)+E(xc)   XCENC  =      1368.53901619
  PAW double counting   =     33345.58952259   -34417.16318353
  entropy T*S    EENTRO =        -0.00098930
  eigenvalues    EBANDS =       -55.10874058
  atomic energy  EATOM  =     39706.97890092
  Solvation  Ediel_sol  =         0.00000000
  ---------------------------------------------------
  free energy    TOTEN  =       390.93480221 eV

  energy without entropy =      390.93579151  energy(sigma->0) =      390.93529686


--------------------------------------------------------------------------------------------------------




--------------------------------------- Iteration      1(   3)  ---------------------------------------


     EDDAV:  cpu time   18.4356: real time   18.4389
       DOS:  cpu time    0.0035: real time    0.0035
    --------------------------------------------
      LOOP:  cpu time   18.4391: real time   18.4424

 eigenvalue-minimisations  :  7240
 total energy-change (2. order) :-0.6182661E+03  (-0.5772006E+03)
 number of electron     382.0000000 magnetization 
 augmentation part      382.0000000 magnetization 

 Free energy of the ion-electron system (eV)
  ---------------------------------------------------
  alpha Z        PSCENC =      1627.65284464
  Ewald energy   TEWEN  =    -31519.12507443
  -Hartree energ DENC   =     -9666.42749428
  -exchange      EXHF   =         0.00000000
  -V(xc)+E(xc)   XCENC  =      1368.53901619
  PAW double counting   =     33345.58952259   -34417.16318353
  entropy T*S    EENTRO =        -0.00159849
  eigenvalues    EBANDS =      -673.37420052
  atomic energy  EATOM  =     39706.97890092
  Solvation  Ediel_sol  =         0.00000000
  ---------------------------------------------------
  free energy    TOTEN  =      -227.33126691 eV

  energy without entropy =     -227.32966842  energy(sigma->0) =     -227.33046766


--------------------------------------------------------------------------------------------------------




--------------------------------------- Iteration      1(   4)  ---------------------------------------


     EDDAV:  cpu time   31.3689: real time   31.3734
       DOS:  cpu time    0.0030: real time    0.0030
    --------------------------------------------
      LOOP:  cpu time   31.3719: real time   31.3765

 eigenvalue-minimisations  : 11330
 total energy-change (2. order) :-0.7910054E+02  (-0.7649948E+02)
 number of electron     382.0000000 magnetization 
 augmentation part      382.0000000 magnetization 

 Free energy of the ion-electron system (eV)
  ---------------------------------------------------
  alpha Z        PSCENC =      1627.65284464
  Ewald energy   TEWEN  =    -31519.12507443
  -Hartree energ DENC   =     -9666.42749428
  -exchange      EXHF   =         0.00000000
  -V(xc)+E(xc)   XCENC  =      1368.53901619
  PAW double counting   =     33345.58952259   -34417.16318353
  entropy T*S    EENTRO =        -0.00068126
  eigenvalues    EBANDS =      -752.47565894
  atomic energy  EATOM  =     39706.97890092
  Solvation  Ediel_sol  =         0.00000000
  ---------------------------------------------------
  free energy    TOTEN  =      -306.43180811 eV

  energy without entropy =     -306.43112685  energy(sigma->0) =     -306.43146748


--------------------------------------------------------------------------------------------------------




--------------------------------------- Iteration      1(   5)  ---------------------------------------


     EDDAV:  cpu time   32.2292: real time   32.2302
       DOS:  cpu time    0.0036: real time    0.0036
    CHARGE:  cpu time    0.3365: real time    0.3365
    MIXING:  cpu time    0.0030: real time    0.0030
    --------------------------------------------
      LOOP:  cpu time   32.5723: real time   32.5733

 eigenvalue-minimisations  : 10860
 total energy-change (2. order) :-0.7615378E+01  (-0.7590415E+01)
 number of electron     382.0000030 magnetization 
 augmentation part      114.4765105 magnetization 

 Broyden mixing:
  rms(total) = 0.70634E+01    rms(broyden)= 0.70628E+01
  rms(prec ) = 0.76345E+01
  weight for this iteration     100.00

 Free energy of the ion-electron system (eV)
  ---------------------------------------------------
  alpha Z        PSCENC =      1627.65284464
  Ewald energy   TEWEN  =    -31519.12507443
  -Hartree energ DENC   =     -9666.42749428
  -exchange      EXHF   =         0.00000000
  -V(xc)+E(xc)   XCENC  =      1368.53901619
  PAW double counting   =     33345.58952259   -34417.16318353
  entropy T*S    EENTRO =        -0.00083351
  eigenvalues    EBANDS =      -760.09088506
  atomic energy  EATOM  =     39706.97890092
  Solvation  Ediel_sol  =         0.00000000
  ---------------------------------------------------
  free energy    TOTEN  =      -314.04718647 eV

  energy without entropy =     -314.04635296  energy(sigma->0) =     -314.04676972


--------------------------------------------------------------------------------------------------------




--------------------------------------- Iteration      1(   6)  ---------------------------------------


    POTLOK:  cpu time    0.0800: real time    0.0804
    SETDIJ:  cpu time    0.0118: real time    0.0118
     EDDAV:  cpu time   25.5569: real time   25.5576
       DOS:  cpu time    0.0035: real time    0.0035
    CHARGE:  cpu time    0.3580: real time    0.3580
    MIXING:  cpu time    0.0033: real time    0.0033
    --------------------------------------------
      LOOP:  cpu time   26.0136: real time   26.0145

 eigenvalue-minimisations  :  7910
 total energy-change (2. order) :-0.3604334E+02  (-0.4998587E+02)
 number of electron     382.0000038 magnetization 
 augmentation part      144.1833951 magnetization 

 Broyden mixing:
  rms(total) = 0.88000E+01    rms(broyden)= 0.87996E+01
  rms(prec ) = 0.96084E+01
  weight for this iteration     100.00

 eigenvalues of (default mixing * dielectric matrix)
  average eigenvalue GAMMA=   0.4096
  0.4096

 Free energy of the ion-electron system (eV)
  ---------------------------------------------------
  alpha Z        PSCENC =      1627.65284464
  Ewald energy   TEWEN  =    -31519.12507443
  -Hartree energ DENC   =     -8926.61942047
  -exchange      EXHF   =         0.00000000
  -V(xc)+E(xc)   XCENC  =      1332.71531068
  PAW double counting   =     38184.74915911   -39147.50518052
  entropy T*S    EENTRO =        -0.00100274
  eigenvalues    EBANDS =     -1608.93606225
  atomic energy  EATOM  =     39706.97890092
  Solvation  Ediel_sol  =         0.00000000
  ---------------------------------------------------
  free energy    TOTEN  =      -350.09052506 eV

  energy without entropy =     -350.08952233  energy(sigma->0) =     -350.09002370


--------------------------------------------------------------------------------------------------------




--------------------------------------- Iteration      1(   7)  ---------------------------------------


    POTLOK:  cpu time    0.0822: real time    0.0824
    SETDIJ:  cpu time    0.0118: real time    0.0118
     EDDAV:  cpu time   26.3445: real time   26.3454
       DOS:  cpu time    0.0037: real time    0.0037
    CHARGE:  cpu time    0.3424: real time    0.3424
    MIXING:  cpu time    0.0032: real time    0.0032
    --------------------------------------------
      LOOP:  cpu time   26.7878: real time   26.7889

 eigenvalue-minimisations  :  8500
 total energy-change (2. order) : 0.6860196E+02  (-0.2080594E+02)
 number of electron     382.0000036 magnetization 
 augmentation part      131.7156592 magnetization 

 Broyden mixing:
  rms(total) = 0.21749E+01    rms(broyden)= 0.21745E+01
  rms(prec ) = 0.25210E+01
  weight for this iteration     100.00

 eigenvalues of (default mixing * dielectric matrix)
  average eigenvalue GAMMA=   0.7025
  1.0002  0.4049

 Free energy of the ion-electron system (eV)
  ---------------------------------------------------
  alpha Z        PSCENC =      1627.65284464
  Ewald energy   TEWEN  =    -31519.12507443
  -Hartree energ DENC   =     -9174.36519392
  -exchange      EXHF   =         0.00000000
  -V(xc)+E(xc)   XCENC  =      1343.32661836
  PAW double counting   =     39256.72697579   -40329.57859776
  entropy T*S    EENTRO =        -0.00247592
  eigenvalues    EBANDS =     -1193.10255991
  atomic energy  EATOM  =     39706.97890092
  Solvation  Ediel_sol  =         0.00000000
  ---------------------------------------------------
  free energy    TOTEN  =      -281.48856224 eV

  energy without entropy =     -281.48608632  energy(sigma->0) =     -281.48732428


--------------------------------------------------------------------------------------------------------




--------------------------------------- Iteration      1(   8)  ---------------------------------------


    POTLOK:  cpu time    0.0756: real time    0.0759
    SETDIJ:  cpu time    0.0116: real time    0.0116
     EDDAV:  cpu time   31.2831: real time   31.2856
       DOS:  cpu time    0.0037: real time    0.0036
    CHARGE:  cpu time    0.3395: real time    0.3395
    MIXING:  cpu time    0.0033: real time    0.0033
    --------------------------------------------
      LOOP:  cpu time   31.7168: real time   31.7195

 eigenvalue-minimisations  : 10480
 total energy-change (2. order) :-0.4750512E+02  (-0.1381360E+02)
 number of electron     382.0000028 magnetization 
 augmentation part      113.3093940 magnetization 

 Broyden mixing:
  rms(total) = 0.11115E+02    rms(broyden)= 0.11114E+02
  rms(prec ) = 0.14281E+02
  weight for this iteration     100.00

 eigenvalues of (default mixing * dielectric matrix)
  average eigenvalue GAMMA=   0.5840
  1.2609  0.3329  0.1580

 Free energy of the ion-electron system (eV)
  ---------------------------------------------------
  alpha Z        PSCENC =      1627.65284464
  Ewald energy   TEWEN  =    -31519.12507443
  -Hartree energ DENC   =     -9226.51299701
  -exchange      EXHF   =         0.00000000
  -V(xc)+E(xc)   XCENC  =      1344.83184761
  PAW double counting   =     41150.79590565   -42277.15686099
  entropy T*S    EENTRO =        -0.00134102
  eigenvalues    EBANDS =     -1136.45690566
  atomic energy  EATOM  =     39706.97890092
  Solvation  Ediel_sol  =         0.00000000
  ---------------------------------------------------
  free energy    TOTEN  =      -328.99368029 eV

  energy without entropy =     -328.99233928  energy(sigma->0) =     -328.99300978


--------------------------------------------------------------------------------------------------------




--------------------------------------- Iteration      1(   9)  ---------------------------------------


    POTLOK:  cpu time    0.0802: real time    0.0805
    SETDIJ:  cpu time    0.0117: real time    0.0117
     EDDAV:  cpu time   31.0172: real time   31.0194
       DOS:  cpu time    0.0039: real time    0.0039
    CHARGE:  cpu time    0.3415: real time    0.3415
    MIXING:  cpu time    0.0035: real time    0.0035
    --------------------------------------------
      LOOP:  cpu time   31.4580: real time   31.4604

 eigenvalue-minimisations  : 10470
 total energy-change (2. order) : 0.3444742E+02  (-0.7957186E+01)
 number of electron     382.0000035 magnetization 
 augmentation part      117.1033873 magnetization 

 Broyden mixing:
  rms(total) = 0.43981E+01    rms(broyden)= 0.43968E+01
  rms(prec ) = 0.54862E+01
  weight for this iteration     100.00

 eigenvalues of (default mixing * dielectric matrix)
  average eigenvalue GAMMA=   0.5817
  1.5308  0.3480  0.3480  0.0997

 Free energy of the ion-electron system (eV)
  ---------------------------------------------------
  alpha Z        PSCENC =      1627.65284464
  Ewald energy   TEWEN  =    -31519.12507443
  -Hartree energ DENC   =     -9204.10594175
  -exchange      EXHF   =         0.00000000
  -V(xc)+E(xc)   XCENC  =      1343.57878302
  PAW double counting   =     41810.73874991   -42944.22207461
  entropy T*S    EENTRO =        -0.00324213
  eigenvalues    EBANDS =     -1116.03920731
  atomic energy  EATOM  =     39706.97890092
  Solvation  Ediel_sol  =         0.00000000
  ---------------------------------------------------
  free energy    TOTEN  =      -294.54626173 eV

  energy without entropy =     -294.54301961  energy(sigma->0) =     -294.54464067


--------------------------------------------------------------------------------------------------------




--------------------------------------- Iteration      1(  10)  ---------------------------------------


    POTLOK:  cpu time    0.0849: real time    0.0852
    SETDIJ:  cpu time    0.0114: real time    0.0114
     EDDAV:  cpu time   29.0882: real time   29.0892
       DOS:  cpu time    0.0040: real time    0.0040
    CHARGE:  cpu time    0.3424: real time    0.3424
    MIXING:  cpu time    0.0036: real time    0.0036
    --------------------------------------------
      LOOP:  cpu time   29.5344: real time   29.5357

 eigenvalue-minimisations  :  9560
 total energy-change (2. order) : 0.1176240E+02  (-0.3608451E+01)
 number of electron     382.0000035 magnetization 
 augmentation part      128.8492935 magnetization 

 Broyden mixing:
  rms(total) = 0.15328E+01    rms(broyden)= 0.15320E+01
  rms(prec ) = 0.18667E+01
  weight for this iteration     100.00

 eigenvalues of (default mixing * dielectric matrix)
  average eigenvalue GAMMA=   0.5171
  1.5115  0.3907  0.3907  0.1851  0.1074

 Free energy of the ion-electron system (eV)
  ---------------------------------------------------
  alpha Z        PSCENC =      1627.65284464
  Ewald energy   TEWEN  =    -31519.12507443
  -Hartree energ DENC   =     -9088.26732730
  -exchange      EXHF   =         0.00000000
  -V(xc)+E(xc)   XCENC  =      1339.02836636
  PAW double counting   =     42436.37815142   -43546.02530222
  entropy T*S    EENTRO =        -0.00216583
  eigenvalues    EBANDS =     -1239.40225362
  atomic energy  EATOM  =     39706.97890092
  Solvation  Ediel_sol  =         0.00000000
  ---------------------------------------------------
  free energy    TOTEN  =      -282.78386005 eV

  energy without entropy =     -282.78169423  energy(sigma->0) =     -282.78277714


--------------------------------------------------------------------------------------------------------




--------------------------------------- Iteration      1(  11)  ---------------------------------------


    POTLOK:  cpu time    0.0893: real time    0.0896
    SETDIJ:  cpu time    0.0116: real time    0.0116
     EDDAV:  cpu time   29.0009: real time   29.0408
       DOS:  cpu time    0.0041: real time    0.0041
    CHARGE:  cpu time    0.3419: real time    0.3422
    MIXING:  cpu time    0.0035: real time    0.0035
    --------------------------------------------
      LOOP:  cpu time   29.4513: real time   29.4917

 eigenvalue-minimisations  :  9570
 total energy-change (2. order) :-0.3179184E+00  (-0.7322630E+00)
 number of electron     382.0000036 magnetization 
 augmentation part      128.8956170 magnetization 

 Broyden mixing:
  rms(total) = 0.14064E+01    rms(broyden)= 0.14063E+01
  rms(prec ) = 0.17477E+01
  weight for this iteration     100.00

 eigenvalues of (default mixing * dielectric matrix)
  average eigenvalue GAMMA=   0.4925
  1.5163  0.4424  0.4424  0.2255  0.2255  0.1031

 Free energy of the ion-electron system (eV)
  ---------------------------------------------------
  alpha Z        PSCENC =      1627.65284464
  Ewald energy   TEWEN  =    -31519.12507443
  -Hartree energ DENC   =     -9094.62549545
  -exchange      EXHF   =         0.00000000
  -V(xc)+E(xc)   XCENC  =      1339.44406527
  PAW double counting   =     42560.55754649   -43668.38715556
  entropy T*S    EENTRO =        -0.00226185
  eigenvalues    EBANDS =     -1235.59514849
  atomic energy  EATOM  =     39706.97890092
  Solvation  Ediel_sol  =         0.00000000
  ---------------------------------------------------
  free energy    TOTEN  =      -283.10177846 eV

  energy without entropy =     -283.09951661  energy(sigma->0) =     -283.10064753


--------------------------------------------------------------------------------------------------------




--------------------------------------- Iteration      1(  12)  ---------------------------------------


    POTLOK:  cpu time    0.0750: real time    0.0754
    SETDIJ:  cpu time    0.0115: real time    0.0115
     EDDAV:  cpu time   28.0826: real time   28.1058
       DOS:  cpu time    0.0032: real time    0.0032
    CHARGE:  cpu time    0.3428: real time    0.3428
    MIXING:  cpu time    0.0043: real time    0.0043
    --------------------------------------------
      LOOP:  cpu time   28.5195: real time   28.5431

 eigenvalue-minimisations  :  9290
 total energy-change (2. order) : 0.2885436E+00  (-0.1576257E+00)
 number of electron     382.0000035 magnetization 
 augmentation part      128.7389688 magnetization 

 Broyden mixing:
  rms(total) = 0.12667E+01    rms(broyden)= 0.12667E+01
  rms(prec ) = 0.15917E+01
  weight for this iteration     100.00

 eigenvalues of (default mixing * dielectric matrix)
  average eigenvalue GAMMA=   0.7718
  2.4588  1.0077  1.0077  0.3238  0.3238  0.1040  0.1765

 Free energy of the ion-electron system (eV)
  ---------------------------------------------------
  alpha Z        PSCENC =      1627.65284464
  Ewald energy   TEWEN  =    -31519.12507443
  -Hartree energ DENC   =     -9097.77536784
  -exchange      EXHF   =         0.00000000
  -V(xc)+E(xc)   XCENC  =      1339.62377358
  PAW double counting   =     42750.07233774   -43858.00721559
  entropy T*S    EENTRO =        -0.00180414
  eigenvalues    EBANDS =     -1232.23162974
  atomic energy  EATOM  =     39706.97890092
  Solvation  Ediel_sol  =         0.00000000
  ---------------------------------------------------
  free energy    TOTEN  =      -282.81323488 eV

  energy without entropy =     -282.81143074  energy(sigma->0) =     -282.81233281


--------------------------------------------------------------------------------------------------------




--------------------------------------- Iteration      1(  13)  ---------------------------------------


    POTLOK:  cpu time    0.0754: real time    0.0757
    SETDIJ:  cpu time    0.0116: real time    0.0116
     EDDAV:  cpu time   32.2242: real time   32.2524
       DOS:  cpu time    0.0039: real time    0.0039
    CHARGE:  cpu time    0.3426: real time    0.3426
    MIXING:  cpu time    0.0037: real time    0.0037
    --------------------------------------------
      LOOP:  cpu time   32.6614: real time   32.6899

 eigenvalue-minimisations  : 10660
 total energy-change (2. order) : 0.9587501E+00  (-0.7991531E-01)
 number of electron     382.0000035 magnetization 
 augmentation part      128.1744525 magnetization 

 Broyden mixing:
  rms(total) = 0.94468E+00    rms(broyden)= 0.94467E+00
  rms(prec ) = 0.11821E+01
  weight for this iteration     100.00

 eigenvalues of (default mixing * dielectric matrix)
  average eigenvalue GAMMA=   0.7721
  2.4423  1.1235  1.1235  0.5552  0.3253  0.3253  0.1040  0.1779

 Free energy of the ion-electron system (eV)
  ---------------------------------------------------
  alpha Z        PSCENC =      1627.65284464
  Ewald energy   TEWEN  =    -31519.12507443
  -Hartree energ DENC   =     -9084.48328482
  -exchange      EXHF   =         0.00000000
  -V(xc)+E(xc)   XCENC  =      1338.97043644
  PAW double counting   =     43788.23700645   -44898.24048915
  entropy T*S    EENTRO =        -0.00212870
  eigenvalues    EBANDS =     -1241.84269613
  atomic energy  EATOM  =     39706.97890092
  Solvation  Ediel_sol  =         0.00000000
  ---------------------------------------------------
  free energy    TOTEN  =      -281.85448477 eV

  energy without entropy =     -281.85235608  energy(sigma->0) =     -281.85342043


--------------------------------------------------------------------------------------------------------




--------------------------------------- Iteration      1(  14)  ---------------------------------------


    POTLOK:  cpu time    0.0744: real time    0.0747
    SETDIJ:  cpu time    0.0116: real time    0.0116
     EDDAV:  cpu time   29.2939: real time   29.3153
       DOS:  cpu time    0.0035: real time    0.0035
    CHARGE:  cpu time    0.3742: real time    0.3745
    MIXING:  cpu time    0.0041: real time    0.0041
    --------------------------------------------
      LOOP:  cpu time   29.7618: real time   29.7838

 eigenvalue-minimisations  :  9720
 total energy-change (2. order) : 0.2029036E+00  (-0.4988030E-01)
 number of electron     382.0000034 magnetization 
 augmentation part      127.9895578 magnetization 

 Broyden mixing:
  rms(total) = 0.81564E+00    rms(broyden)= 0.81563E+00
  rms(prec ) = 0.10210E+01
  weight for this iteration     100.00

 eigenvalues of (default mixing * dielectric matrix)
  average eigenvalue GAMMA=   0.7182
  2.3847  1.3694  1.0066  0.6329  0.3245  0.3245  0.1040  0.1790  0.1384

 Free energy of the ion-electron system (eV)
  ---------------------------------------------------
  alpha Z        PSCENC =      1627.65284464
  Ewald energy   TEWEN  =    -31519.12507443
  -Hartree energ DENC   =     -9089.47794937
  -exchange      EXHF   =         0.00000000
  -V(xc)+E(xc)   XCENC  =      1339.22671164
  PAW double counting   =     43790.59359472   -44897.61413669
  entropy T*S    EENTRO =        -0.00284493
  eigenvalues    EBANDS =     -1239.88362771
  atomic energy  EATOM  =     39706.97890092
  Solvation  Ediel_sol  =         0.00000000
  ---------------------------------------------------
  free energy    TOTEN  =      -281.65158122 eV

  energy without entropy =     -281.64873628  energy(sigma->0) =     -281.65015875


--------------------------------------------------------------------------------------------------------




--------------------------------------- Iteration      1(  15)  ---------------------------------------


    POTLOK:  cpu time    0.0791: real time    0.0795
    SETDIJ:  cpu time    0.0116: real time    0.0116
     EDDAV:  cpu time   29.6379: real time   29.6637
       DOS:  cpu time    0.0034: real time    0.0034
    CHARGE:  cpu time    0.3369: real time    0.3369
    MIXING:  cpu time    0.0042: real time    0.0042
    --------------------------------------------
      LOOP:  cpu time   30.0731: real time   30.0993

 eigenvalue-minimisations  :  9740
 total energy-change (2. order) : 0.9410269E-01  (-0.1744556E-01)
 number of electron     382.0000035 magnetization 
 augmentation part      127.8964353 magnetization 

 Broyden mixing:
  rms(total) = 0.73803E+00    rms(broyden)= 0.73803E+00
  rms(prec ) = 0.92436E+00
  weight for this iteration     100.00

 eigenvalues of (default mixing * dielectric matrix)
  average eigenvalue GAMMA=   0.6899
  2.3257  1.5602  0.9794  0.4738  0.4391  0.3091  0.3091  0.1040  0.1788  0.2202

 Free energy of the ion-electron system (eV)
  ---------------------------------------------------
  alpha Z        PSCENC =      1627.65284464
  Ewald energy   TEWEN  =    -31519.12507443
  -Hartree energ DENC   =     -9091.83551143
  -exchange      EXHF   =         0.00000000
  -V(xc)+E(xc)   XCENC  =      1339.34234755
  PAW double counting   =     43766.23128160   -44872.18340411
  entropy T*S    EENTRO =        -0.00225424
  eigenvalues    EBANDS =     -1238.61660901
  atomic energy  EATOM  =     39706.97890092
  Solvation  Ediel_sol  =         0.00000000
  ---------------------------------------------------
  free energy    TOTEN  =      -281.55747852 eV

  energy without entropy =     -281.55522428  energy(sigma->0) =     -281.55635140


--------------------------------------------------------------------------------------------------------




--------------------------------------- Iteration      1(  16)  ---------------------------------------


    POTLOK:  cpu time    0.0800: real time    0.0802
    SETDIJ:  cpu time    0.0115: real time    0.0115
     EDDAV:  cpu time   28.4692: real time   28.4909
       DOS:  cpu time    0.0039: real time    0.0039
    CHARGE:  cpu time    0.3355: real time    0.3360
    MIXING:  cpu time    0.0044: real time    0.0044
    --------------------------------------------
      LOOP:  cpu time   28.9045: real time   28.9269

 eigenvalue-minimisations  :  9410
 total energy-change (2. order) : 0.8719364E-01  (-0.3011868E-02)
 number of electron     382.0000035 magnetization 
 augmentation part      127.8471210 magnetization 

 Broyden mixing:
  rms(total) = 0.66184E+00    rms(broyden)= 0.66184E+00
  rms(prec ) = 0.83125E+00
  weight for this iteration     100.00

 eigenvalues of (default mixing * dielectric matrix)
  average eigenvalue GAMMA=   0.7453
  2.3520  1.6477  1.0846  0.7449  0.7449  0.5180  0.3249  0.3249  0.1040  0.1782
  0.1744

 Free energy of the ion-electron system (eV)
  ---------------------------------------------------
  alpha Z        PSCENC =      1627.65284464
  Ewald energy   TEWEN  =    -31519.12507443
  -Hartree energ DENC   =     -9095.63252353
  -exchange      EXHF   =         0.00000000
  -V(xc)+E(xc)   XCENC  =      1339.53239977
  PAW double counting   =     43724.32001150   -44828.29668066
  entropy T*S    EENTRO =        -0.00232851
  eigenvalues    EBANDS =     -1236.89783458
  atomic energy  EATOM  =     39706.97890092
  Solvation  Ediel_sol  =         0.00000000
  ---------------------------------------------------
  free energy    TOTEN  =      -281.47028488 eV

  energy without entropy =     -281.46795637  energy(sigma->0) =     -281.46912063


--------------------------------------------------------------------------------------------------------




--------------------------------------- Iteration      1(  17)  ---------------------------------------


    POTLOK:  cpu time    0.0658: real time    0.0662
    SETDIJ:  cpu time    0.0123: real time    0.0123
     EDDAV:  cpu time   30.2198: real time   30.2468
       DOS:  cpu time    0.0039: real time    0.0039
    CHARGE:  cpu time    0.3425: real time    0.3425
    MIXING:  cpu time    0.0042: real time    0.0042
    --------------------------------------------
      LOOP:  cpu time   30.6484: real time   30.6759

 eigenvalue-minimisations  : 10020
 total energy-change (2. order) : 0.9126417E-01  (-0.3969773E-02)
 number of electron     382.0000035 magnetization 
 augmentation part      127.7639332 magnetization 

 Broyden mixing:
  rms(total) = 0.58050E+00    rms(broyden)= 0.58050E+00
  rms(prec ) = 0.73486E+00
  weight for this iteration     100.00

 eigenvalues of (default mixing * dielectric matrix)
  average eigenvalue GAMMA=   0.7963
  2.5711  1.6708  1.6708  0.9084  0.9084  0.5644  0.3241  0.3241  0.1040  0.1782
  0.1660  0.1660

 Free energy of the ion-electron system (eV)
  ---------------------------------------------------
  alpha Z        PSCENC =      1627.65284464
  Ewald energy   TEWEN  =    -31519.12507443
  -Hartree energ DENC   =     -9099.26286076
  -exchange      EXHF   =         0.00000000
  -V(xc)+E(xc)   XCENC  =      1339.70405511
  PAW double counting   =     43711.29266202   -44813.32690860
  entropy T*S    EENTRO =        -0.00199013
  eigenvalues    EBANDS =     -1235.29064948
  atomic energy  EATOM  =     39706.97890092
  Solvation  Ediel_sol  =         0.00000000
  ---------------------------------------------------
  free energy    TOTEN  =      -281.37902071 eV

  energy without entropy =     -281.37703059  energy(sigma->0) =     -281.37802565


--------------------------------------------------------------------------------------------------------




--------------------------------------- Iteration      1(  18)  ---------------------------------------


    POTLOK:  cpu time    0.0752: real time    0.0758
    SETDIJ:  cpu time    0.0117: real time    0.0116
     EDDAV:  cpu time   33.4821: real time   33.5139
       DOS:  cpu time    0.0041: real time    0.0041
    CHARGE:  cpu time    0.3428: real time    0.3428
    MIXING:  cpu time    0.0044: real time    0.0044
    --------------------------------------------
      LOOP:  cpu time   33.9201: real time   33.9525

 eigenvalue-minimisations  : 11270
 total energy-change (2. order) : 0.1553301E+00  (-0.5058770E-02)
 number of electron     382.0000034 magnetization 
 augmentation part      127.6066197 magnetization 

 Broyden mixing:
  rms(total) = 0.39782E+00    rms(broyden)= 0.39781E+00
  rms(prec ) = 0.50555E+00
  weight for this iteration     100.00

 eigenvalues of (default mixing * dielectric matrix)
  average eigenvalue GAMMA=   0.8418
  2.5107  2.5107  1.6585  0.9023  0.9023  0.5811  0.5811  0.3234  0.3234  0.1040
  0.1932  0.1780  0.1746

 Free energy of the ion-electron system (eV)
  ---------------------------------------------------
  alpha Z        PSCENC =      1627.65284464
  Ewald energy   TEWEN  =    -31519.12507443
  -Hartree energ DENC   =     -9105.45421276
  -exchange      EXHF   =         0.00000000
  -V(xc)+E(xc)   XCENC  =      1339.99304797
  PAW double counting   =     43689.88412643   -44788.46737890
  entropy T*S    EENTRO =        -0.00215331
  eigenvalues    EBANDS =     -1232.68379120
  atomic energy  EATOM  =     39706.97890092
  Solvation  Ediel_sol  =         0.00000000
  ---------------------------------------------------
  free energy    TOTEN  =      -281.22369064 eV

  energy without entropy =     -281.22153733  energy(sigma->0) =     -281.22261398


--------------------------------------------------------------------------------------------------------




--------------------------------------- Iteration      1(  19)  ---------------------------------------


    POTLOK:  cpu time    0.0780: real time    0.0794
    SETDIJ:  cpu time    0.0117: real time    0.0117
     EDDAV:  cpu time   28.7226: real time   28.7414
       DOS:  cpu time    0.0039: real time    0.0039
    CHARGE:  cpu time    0.3409: real time    0.3410
    MIXING:  cpu time    0.0046: real time    0.0046
    --------------------------------------------
      LOOP:  cpu time   29.1617: real time   29.1819

 eigenvalue-minimisations  :  9360
 total energy-change (2. order) : 0.6532021E-01  (-0.5229260E-02)
 number of electron     382.0000034 magnetization 
 augmentation part      127.4413946 magnetization 

 Broyden mixing:
  rms(total) = 0.26730E+00    rms(broyden)= 0.26729E+00
  rms(prec ) = 0.34089E+00
  weight for this iteration     100.00

 eigenvalues of (default mixing * dielectric matrix)
  average eigenvalue GAMMA=   0.8977
  2.7874  2.7874  1.5739  1.0094  1.0094  0.7787  0.7787  0.5527  0.3238  0.3238
  0.1040  0.1848  0.1776  0.1757

 Free energy of the ion-electron system (eV)
  ---------------------------------------------------
  alpha Z        PSCENC =      1627.65284464
  Ewald energy   TEWEN  =    -31519.12507443
  -Hartree energ DENC   =     -9108.91026430
  -exchange      EXHF   =         0.00000000
  -V(xc)+E(xc)   XCENC  =      1340.14490004
  PAW double counting   =     43659.14501721   -44756.17737469
  entropy T*S    EENTRO =        -0.00232998
  eigenvalues    EBANDS =     -1230.86498984
  atomic energy  EATOM  =     39706.97890092
  Solvation  Ediel_sol  =         0.00000000
  ---------------------------------------------------
  free energy    TOTEN  =      -281.15837043 eV

  energy without entropy =     -281.15604045  energy(sigma->0) =     -281.15720544


--------------------------------------------------------------------------------------------------------




--------------------------------------- Iteration      1(  20)  ---------------------------------------


    POTLOK:  cpu time    0.0789: real time    0.0792
    SETDIJ:  cpu time    0.0117: real time    0.0117
     EDDAV:  cpu time   27.3428: real time   27.3596
       DOS:  cpu time    0.0039: real time    0.0039
    CHARGE:  cpu time    0.3350: real time    0.3350
    MIXING:  cpu time    0.0047: real time    0.0047
    --------------------------------------------
      LOOP:  cpu time   27.7770: real time   27.7940

 eigenvalue-minimisations  :  8990
 total energy-change (2. order) : 0.2192937E-01  (-0.1572130E-02)
 number of electron     382.0000034 magnetization 
 augmentation part      127.3663159 magnetization 

 Broyden mixing:
  rms(total) = 0.20902E+00    rms(broyden)= 0.20901E+00
  rms(prec ) = 0.26625E+00
  weight for this iteration     100.00

 eigenvalues of (default mixing * dielectric matrix)
  average eigenvalue GAMMA=   0.9729
  3.5999  3.0363  1.5879  1.0741  1.0741  0.8539  0.8539  0.6284  0.5954  0.3237
  0.3237  0.1040  0.1855  0.1777  0.1755

 Free energy of the ion-electron system (eV)
  ---------------------------------------------------
  alpha Z        PSCENC =      1627.65284464
  Ewald energy   TEWEN  =    -31519.12507443
  -Hartree energ DENC   =     -9109.74601412
  -exchange      EXHF   =         0.00000000
  -V(xc)+E(xc)   XCENC  =      1340.18019199
  PAW double counting   =     43650.20376394   -44746.51664654
  entropy T*S    EENTRO =        -0.00239073
  eigenvalues    EBANDS =     -1230.76201672
  atomic energy  EATOM  =     39706.97890092
  Solvation  Ediel_sol  =         0.00000000
  ---------------------------------------------------
  free energy    TOTEN  =      -281.13644106 eV

  energy without entropy =     -281.13405033  energy(sigma->0) =     -281.13524570


--------------------------------------------------------------------------------------------------------




--------------------------------------- Iteration      1(  21)  ---------------------------------------


    POTLOK:  cpu time    0.0787: real time    0.0794
    SETDIJ:  cpu time    0.0117: real time    0.0117
     EDDAV:  cpu time   29.2026: real time   29.2146
       DOS:  cpu time    0.0034: real time    0.0034
    CHARGE:  cpu time    0.2135: real time    0.2135
    MIXING:  cpu time    0.0033: real time    0.0033
    --------------------------------------------
      LOOP:  cpu time   29.5132: real time   29.5258

 eigenvalue-minimisations  : 10740
 total energy-change (2. order) : 0.2641259E-01  (-0.1114685E-02)
 number of electron     382.0000034 magnetization 
 augmentation part      127.2385576 magnetization 

 Broyden mixing:
  rms(total) = 0.11105E+00    rms(broyden)= 0.11103E+00
  rms(prec ) = 0.14198E+00
  weight for this iteration     100.00

 eigenvalues of (default mixing * dielectric matrix)
  average eigenvalue GAMMA=   1.0341
  4.6296  2.6073  1.7840  1.3804  0.9661  0.9661  0.7895  0.7895  0.7707  0.5723
  0.3237  0.3237  0.1040  0.1854  0.1777  0.1755

 Free energy of the ion-electron system (eV)
  ---------------------------------------------------
  alpha Z        PSCENC =      1627.65284464
  Ewald energy   TEWEN  =    -31519.12507443
  -Hartree energ DENC   =     -9111.99868054
  -exchange      EXHF   =         0.00000000
  -V(xc)+E(xc)   XCENC  =      1340.26981760
  PAW double counting   =     43622.39503271   -44717.45220590
  entropy T*S    EENTRO =        -0.00260821
  eigenvalues    EBANDS =     -1229.82805526
  atomic energy  EATOM  =     39706.97890092
  Solvation  Ediel_sol  =         0.00000000
  ---------------------------------------------------
  free energy    TOTEN  =      -281.11002848 eV

  energy without entropy =     -281.10742027  energy(sigma->0) =     -281.10872437


--------------------------------------------------------------------------------------------------------




--------------------------------------- Iteration      1(  22)  ---------------------------------------


    POTLOK:  cpu time    0.0538: real time    0.0538
    SETDIJ:  cpu time    0.0065: real time    0.0065
     EDDAV:  cpu time   22.1849: real time   22.1878
       DOS:  cpu time    0.0039: real time    0.0039
    CHARGE:  cpu time    0.2132: real time    0.2132
    MIXING:  cpu time    0.0035: real time    0.0035
    --------------------------------------------
      LOOP:  cpu time   22.4659: real time   22.4687

 eigenvalue-minimisations  :  9220
 total energy-change (2. order) : 0.8579883E-02  (-0.1557818E-02)
 number of electron     382.0000034 magnetization 
 augmentation part      127.1033402 magnetization 

 Broyden mixing:
  rms(total) = 0.31354E-01    rms(broyden)= 0.31309E-01
  rms(prec ) = 0.38968E-01
  weight for this iteration     100.00

 eigenvalues of (default mixing * dielectric matrix)
  average eigenvalue GAMMA=   1.0992
  5.1312  2.7060  1.7652  1.5335  1.5335  0.8767  0.8767  0.8402  0.8402  0.7169
  0.5763  0.3237  0.3237  0.1040  0.1854  0.1777  0.1755

 Free energy of the ion-electron system (eV)
  ---------------------------------------------------
  alpha Z        PSCENC =      1627.65284464
  Ewald energy   TEWEN  =    -31519.12507443
[...]
 
 d Force = 0.3958222E+01[ 0.255E+01, 0.537E+01]  d Energy = 0.4452770E+01-0.495E+00
 d Force = 0.2636315E+03[ 0.176E+03, 0.351E+03]  d Ewald  = 0.6707635E+03-0.407E+03


--------------------------------------------------------------------------------------------------------


    POTLOK:  cpu time    0.0599: real time    0.0599


--------------------------------------------------------------------------------------------------------


 Quasi-Newton relaxation of ions (Broydens 2nd method)
  g(Force)  = 0.290E+00   g(Stress)= 0.226E-01

 retain information from N=  1 steps
 eigenvalues of (default step * inverse Hessian matrix)
  average eigenvalue of G=  16.8237
 eigenvalue spectrum of G is 16.8237


--------------------------------------------------------------------------------------------------------


    WAVPRE:  cpu time    0.0199: real time    0.0199
    FEWALD:  cpu time    0.0011: real time    0.0011
    GENKIN:  cpu time    0.0134: real time    0.0134
    ORTHCH:  cpu time    0.8417: real time    0.8417
     LOOP+:  cpu time  395.5384: real time  395.6302


--------------------------------------- Iteration      4(   1)  ---------------------------------------


    POTLOK:  cpu time    0.0554: real time    0.0554
    SETDIJ:  cpu time    0.0065: real time    0.0065
     EDDAV:  cpu time   16.9815: real time   16.9841
       DOS:  cpu time    0.0035: real time    0.0035
    CHARGE:  cpu time    0.2203: real time    0.2203
    MIXING:  cpu time    0.0019: real time    0.0019
    --------------------------------------------
      LOOP:  cpu time   17.2691: real time   17.2717

 eigenvalue-minimisations  :  6440
 total energy-change (2. order) :-0.1217706E+01  (-0.1440843E+02)
 number of electron     382.0000042 magnetization 
 augmentation part      124.1425474 magnetization 

 Broyden mixing:
  rms(total) = 0.92866E+00    rms(broyden)= 0.92848E+00
  rms(prec ) = 0.10575E+01
  weight for this iteration     100.00

 Free energy of the ion-electron system (eV)
  ---------------------------------------------------
  alpha Z        PSCENC =      1715.02253751
  Ewald energy   TEWEN  =    -32445.12223816
  -Hartree energ DENC   =     -8595.58494330
  -exchange      EXHF   =         0.00000000
  -V(xc)+E(xc)   XCENC  =      1347.66205300
  PAW double counting   =     44375.69830187   -45468.24332389
  entropy T*S    EENTRO =        -0.00306965
  eigenvalues    EBANDS =      -923.98944661
  atomic energy  EATOM  =     39706.97890092
  Solvation  Ediel_sol  =         0.00000000
  ---------------------------------------------------
  free energy    TOTEN  =      -287.58122831 eV

  energy without entropy =     -287.57815866  energy(sigma->0) =     -287.57969349


--------------------------------------------------------------------------------------------------------




--------------------------------------- Iteration      4(   2)  ---------------------------------------


    POTLOK:  cpu time    0.0537: real time    0.0537
    SETDIJ:  cpu time    0.0070: real time    0.0070
     EDDAV:  cpu time   22.2427: real time   22.2457
       DOS:  cpu time    0.0035: real time    0.0035
    CHARGE:  cpu time    0.2142: real time    0.2142
    MIXING:  cpu time    0.0020: real time    0.0020
    --------------------------------------------
      LOOP:  cpu time   22.5232: real time   22.5262

 eigenvalue-minimisations  :  9220
 total energy-change (2. order) :-0.2868234E+01  (-0.1957250E+01)
 number of electron     382.0000047 magnetization 
 augmentation part      132.4331833 magnetization 

 Broyden mixing:
  rms(total) = 0.17143E+01    rms(broyden)= 0.17141E+01
  rms(prec ) = 0.20977E+01
  weight for this iteration     100.00

 eigenvalues of (default mixing * dielectric matrix)
  average eigenvalue GAMMA=   0.3373
  0.3373

 Free energy of the ion-electron system (eV)
  ---------------------------------------------------
  alpha Z        PSCENC =      1715.02253751
  Ewald energy   TEWEN  =    -32445.12223816
  -Hartree energ DENC   =     -8471.31473747
  -exchange      EXHF   =         0.00000000
  -V(xc)+E(xc)   XCENC  =      1341.82919685
  PAW double counting   =     44776.88712466   -45845.88842672
  entropy T*S    EENTRO =        -0.00338681
  eigenvalues    EBANDS =     -1068.83843269
  atomic energy  EATOM  =     39706.97890092
  Solvation  Ediel_sol  =         0.00000000
  ---------------------------------------------------
  free energy    TOTEN  =      -290.44946192 eV

  energy without entropy =     -290.44607511  energy(sigma->0) =     -290.44776852


--------------------------------------------------------------------------------------------------------




--------------------------------------- Iteration      4(   3)  ---------------------------------------


    POTLOK:  cpu time    0.0534: real time    0.0534
    SETDIJ:  cpu time    0.0068: real time    0.0068
     EDDAV:  cpu time   21.9446: real time   21.9478
       DOS:  cpu time    0.0036: real time    0.0036
    CHARGE:  cpu time    0.2136: real time    0.2136
    MIXING:  cpu time    0.0021: real time    0.0021
    --------------------------------------------
      LOOP:  cpu time   22.2240: real time   22.2272

 eigenvalue-minimisations  :  9050
 total energy-change (2. order) : 0.3055056E+01  (-0.1041350E+01)
 number of electron     382.0000045 magnetization 
 augmentation part      126.6912887 magnetization 

 Broyden mixing:
  rms(total) = 0.74921E+00    rms(broyden)= 0.74843E+00
  rms(prec ) = 0.91997E+00
  weight for this iteration     100.00

 eigenvalues of (default mixing * dielectric matrix)
  average eigenvalue GAMMA=   0.3483
  0.4899  0.2067

 Free energy of the ion-electron system (eV)
  ---------------------------------------------------
  alpha Z        PSCENC =      1715.02253751
  Ewald energy   TEWEN  =    -32445.12223816
  -Hartree energ DENC   =     -8537.81771242
  -exchange      EXHF   =         0.00000000
  -V(xc)+E(xc)   XCENC  =      1344.65713832
  PAW double counting   =     44774.88306069   -45867.96816049
  entropy T*S    EENTRO =        -0.00224248
  eigenvalues    EBANDS =      -978.02569004
  atomic energy  EATOM  =     39706.97890092
  Solvation  Ediel_sol  =         0.00000000
  ---------------------------------------------------
  free energy    TOTEN  =      -287.39440617 eV

  energy without entropy =     -287.39216369  energy(sigma->0) =     -287.39328493


--------------------------------------------------------------------------------------------------------




--------------------------------------- Iteration      4(   4)  ---------------------------------------


    POTLOK:  cpu time    0.0538: real time    0.0538
    SETDIJ:  cpu time    0.0067: real time    0.0067
     EDDAV:  cpu time   22.8903: real time   22.8942
       DOS:  cpu time    0.0037: real time    0.0037
    CHARGE:  cpu time    0.2142: real time    0.2142
    MIXING:  cpu time    0.0021: real time    0.0021
    --------------------------------------------
      LOOP:  cpu time   23.1709: real time   23.1748

 eigenvalue-minimisations  :  9600
 total energy-change (2. order) :-0.9964462E-01  (-0.3541698E+00)
 number of electron     382.0000041 magnetization 
 augmentation part      126.2626471 magnetization 

 Broyden mixing:
  rms(total) = 0.60571E+00    rms(broyden)= 0.60518E+00
  rms(prec ) = 0.74792E+00
  weight for this iteration     100.00

 eigenvalues of (default mixing * dielectric matrix)
  average eigenvalue GAMMA=   0.5297
  1.1672  0.2801  0.1417

 Free energy of the ion-electron system (eV)
  ---------------------------------------------------
  alpha Z        PSCENC =      1715.02253751
  Ewald energy   TEWEN  =    -32445.12223816
  -Hartree energ DENC   =     -8537.57520743
  -exchange      EXHF   =         0.00000000
  -V(xc)+E(xc)   XCENC  =      1344.54596619
  PAW double counting   =     44789.38225315   -45885.39951157
  entropy T*S    EENTRO =        -0.00421247
  eigenvalues    EBANDS =      -975.32253892
  atomic energy  EATOM  =     39706.97890092
  Solvation  Ediel_sol  =         0.00000000
  ---------------------------------------------------
  free energy    TOTEN  =      -287.49405079 eV

  energy without entropy =     -287.48983832  energy(sigma->0) =     -287.49194455


--------------------------------------------------------------------------------------------------------




--------------------------------------- Iteration      4(   5)  ---------------------------------------


    POTLOK:  cpu time    0.0540: real time    0.0541
    SETDIJ:  cpu time    0.0067: real time    0.0067
     EDDAV:  cpu time   24.7085: real time   24.7115
       DOS:  cpu time    0.0038: real time    0.0037
    CHARGE:  cpu time    0.2170: real time    0.2170
    MIXING:  cpu time    0.0023: real time    0.0023
    --------------------------------------------
      LOOP:  cpu time   24.9923: real time   24.9953

 eigenvalue-minimisations  : 10510
 total energy-change (2. order) : 0.2401503E+00  (-0.7971879E-01)
 number of electron     382.0000044 magnetization 
 augmentation part      126.5350649 magnetization 

 Broyden mixing:
  rms(total) = 0.25991E+00    rms(broyden)= 0.25976E+00
  rms(prec ) = 0.31027E+00
  weight for this iteration     100.00

 eigenvalues of (default mixing * dielectric matrix)
  average eigenvalue GAMMA=   0.4769
  1.1456  0.3110  0.3110  0.1399

 Free energy of the ion-electron system (eV)
  ---------------------------------------------------
  alpha Z        PSCENC =      1715.02253751
  Ewald energy   TEWEN  =    -32445.12223816
  -Hartree energ DENC   =     -8519.60072567
  -exchange      EXHF   =         0.00000000
  -V(xc)+E(xc)   XCENC  =      1343.64103455
  PAW double counting   =     44787.59833741   -45884.69417339
  entropy T*S    EENTRO =        -0.00272895
  eigenvalues    EBANDS =      -991.07484469
  atomic energy  EATOM  =     39706.97890092
  Solvation  Ediel_sol  =         0.00000000
  ---------------------------------------------------
  free energy    TOTEN  =      -287.25390047 eV

  energy without entropy =     -287.25117153  energy(sigma->0) =     -287.25253600


--------------------------------------------------------------------------------------------------------




--------------------------------------- Iteration      4(   6)  ---------------------------------------


    POTLOK:  cpu time    0.0538: real time    0.0538
    SETDIJ:  cpu time    0.0066: real time    0.0066
     EDDAV:  cpu time   25.0972: real time   25.1009
       DOS:  cpu time    0.0035: real time    0.0035
    CHARGE:  cpu time    0.2133: real time    0.2132
    MIXING:  cpu time    0.0024: real time    0.0024
    --------------------------------------------
      LOOP:  cpu time   25.3767: real time   25.3804

 eigenvalue-minimisations  : 10720
 total energy-change (2. order) : 0.1951212E-01  (-0.2587960E-01)
 number of electron     382.0000043 magnetization 
 augmentation part      126.7258192 magnetization 

 Broyden mixing:
  rms(total) = 0.20172E+00    rms(broyden)= 0.20168E+00
  rms(prec ) = 0.23619E+00
  weight for this iteration     100.00

 eigenvalues of (default mixing * dielectric matrix)
  average eigenvalue GAMMA=   0.5747
  1.1221  1.1221  0.2985  0.1385  0.1924

 Free energy of the ion-electron system (eV)
  ---------------------------------------------------
  alpha Z        PSCENC =      1715.02253751
  Ewald energy   TEWEN  =    -32445.12223816
  -Hartree energ DENC   =     -8517.06598168
  -exchange      EXHF   =         0.00000000
  -V(xc)+E(xc)   XCENC  =      1343.51499936
  PAW double counting   =     44763.84595614   -45860.14071984
  entropy T*S    EENTRO =        -0.00224210
  eigenvalues    EBANDS =      -994.26560049
  atomic energy  EATOM  =     39706.97890092
  Solvation  Ediel_sol  =         0.00000000
  ---------------------------------------------------
  free energy    TOTEN  =      -287.23438835 eV

  energy without entropy =     -287.23214625  energy(sigma->0) =     -287.23326730


--------------------------------------------------------------------------------------------------------




--------------------------------------- Iteration      4(   7)  ---------------------------------------


    POTLOK:  cpu time    0.0537: real time    0.0537
    SETDIJ:  cpu time    0.0066: real time    0.0066
     EDDAV:  cpu time   23.0821: real time   23.0891
       DOS:  cpu time    0.0035: real time    0.0035
    CHARGE:  cpu time    0.2137: real time    0.2137
    MIXING:  cpu time    0.0025: real time    0.0025
    --------------------------------------------
      LOOP:  cpu time   23.3620: real time   23.3689

 eigenvalue-minimisations  :  9690
 total energy-change (2. order) : 0.1693211E-01  (-0.8147284E-02)
 number of electron     382.0000044 magnetization 
 augmentation part      126.8391061 magnetization 

 Broyden mixing:
  rms(total) = 0.87199E-01    rms(broyden)= 0.87176E-01
  rms(prec ) = 0.95815E-01
  weight for this iteration     100.00

 eigenvalues of (default mixing * dielectric matrix)
  average eigenvalue GAMMA=   0.7624
  1.5873  1.5873  0.7796  0.2944  0.1389  0.1868

 Free energy of the ion-electron system (eV)
  ---------------------------------------------------
  alpha Z        PSCENC =      1715.02253751
  Ewald energy   TEWEN  =    -32445.12223816
  -Hartree energ DENC   =     -8517.41539452
  -exchange      EXHF   =         0.00000000
  -V(xc)+E(xc)   XCENC  =      1343.51994531
  PAW double counting   =     44702.50532328   -45797.20656997
  entropy T*S    EENTRO =        -0.00255687
  eigenvalues    EBANDS =      -995.49740372
  atomic energy  EATOM  =     39706.97890092
  Solvation  Ediel_sol  =         0.00000000
  ---------------------------------------------------
  free energy    TOTEN  =      -287.21745624 eV

  energy without entropy =     -287.21489937  energy(sigma->0) =     -287.21617780


--------------------------------------------------------------------------------------------------------




--------------------------------------- Iteration      4(   8)  ---------------------------------------


    POTLOK:  cpu time    0.0536: real time    0.0537
    SETDIJ:  cpu time    0.0066: real time    0.0066
     EDDAV:  cpu time   23.4972: real time   23.5052
       DOS:  cpu time    0.0034: real time    0.0034
    CHARGE:  cpu time    0.2157: real time    0.2157
    MIXING:  cpu time    0.0025: real time    0.0025
    --------------------------------------------
      LOOP:  cpu time   23.7790: real time   23.7871

 eigenvalue-minimisations  :  9890
 total energy-change (2. order) :-0.9786130E-02  (-0.5048382E-02)
 number of electron     382.0000044 magnetization 
 augmentation part      126.8657571 magnetization 

 Broyden mixing:
  rms(total) = 0.12772E+00    rms(broyden)= 0.12770E+00
  rms(prec ) = 0.15687E+00
  weight for this iteration     100.00

 eigenvalues of (default mixing * dielectric matrix)
  average eigenvalue GAMMA=   0.7689
  1.8213  1.8213  0.9216  0.2942  0.1389  0.1926  0.1926

 Free energy of the ion-electron system (eV)
  ---------------------------------------------------
  alpha Z        PSCENC =      1715.02253751
  Ewald energy   TEWEN  =    -32445.12223816
  -Hartree energ DENC   =     -8517.54389420
  -exchange      EXHF   =         0.00000000
  -V(xc)+E(xc)   XCENC  =      1343.50050514
  PAW double counting   =     44630.14914949   -45723.50829821
  entropy T*S    EENTRO =        -0.00217033
  eigenvalues    EBANDS =      -996.70173452
  atomic energy  EATOM  =     39706.97890092
  Solvation  Ediel_sol  =         0.00000000
  ---------------------------------------------------
  free energy    TOTEN  =      -287.22724237 eV

  energy without entropy =     -287.22507204  energy(sigma->0) =     -287.22615720


--------------------------------------------------------------------------------------------------------




--------------------------------------- Iteration      4(   9)  ---------------------------------------


    POTLOK:  cpu time    0.0535: real time    0.0535
    SETDIJ:  cpu time    0.0066: real time    0.0066
     EDDAV:  cpu time   25.3246: real time   25.3308
       DOS:  cpu time    0.0035: real time    0.0035
    CHARGE:  cpu time    0.2139: real time    0.2139
    MIXING:  cpu time    0.0026: real time    0.0026
    --------------------------------------------
      LOOP:  cpu time   25.6048: real time   25.6110

 eigenvalue-minimisations  : 10880
 total energy-change (2. order) : 0.1053380E-01  (-0.4350132E-02)
 number of electron     382.0000044 magnetization 
 augmentation part      126.8516066 magnetization 

 Broyden mixing:
  rms(total) = 0.29966E-01    rms(broyden)= 0.29904E-01
  rms(prec ) = 0.38921E-01
  weight for this iteration     100.00

 eigenvalues of (default mixing * dielectric matrix)
  average eigenvalue GAMMA=   0.7711
  2.2011  1.4574  1.0679  0.6296  0.2951  0.1388  0.1925  0.1863

 Free energy of the ion-electron system (eV)
  ---------------------------------------------------
  alpha Z        PSCENC =      1715.02253751
  Ewald energy   TEWEN  =    -32445.12223816
  -Hartree energ DENC   =     -8517.53524267
  -exchange      EXHF   =         0.00000000
  -V(xc)+E(xc)   XCENC  =      1343.47663423
  PAW double counting   =     44595.11093416   -45687.95144979
  entropy T*S    EENTRO =        -0.00244700
  eigenvalues    EBANDS =      -997.19433774
  atomic energy  EATOM  =     39706.97890092
  Solvation  Ediel_sol  =         0.00000000
  ---------------------------------------------------
  free energy    TOTEN  =      -287.21670856 eV

  energy without entropy =     -287.21426156  energy(sigma->0) =     -287.21548506


--------------------------------------------------------------------------------------------------------




--------------------------------------- Iteration      4(  10)  ---------------------------------------


    POTLOK:  cpu time    0.0538: real time    0.0538
    SETDIJ:  cpu time    0.0066: real time    0.0066
     EDDAV:  cpu time   24.2299: real time   24.2374
       DOS:  cpu time    0.0035: real time    0.0034
    CHARGE:  cpu time    0.2155: real time    0.2156
    MIXING:  cpu time    0.0027: real time    0.0027
    --------------------------------------------
      LOOP:  cpu time   24.5119: real time   24.5195

 eigenvalue-minimisations  : 10280
 total energy-change (2. order) : 0.6680496E-03  (-0.7454869E-03)
 number of electron     382.0000044 magnetization 
 augmentation part      126.8377581 magnetization 

 Broyden mixing:
  rms(total) = 0.11759E-01    rms(broyden)= 0.11753E-01
  rms(prec ) = 0.13413E-01
  weight for this iteration     100.00

 eigenvalues of (default mixing * dielectric matrix)
  average eigenvalue GAMMA=   0.7348
  2.0845  1.5213  1.0325  0.5820  0.5820  0.2950  0.1388  0.1922  0.1848

 Free energy of the ion-electron system (eV)
  ---------------------------------------------------
  alpha Z        PSCENC =      1715.02253751
  Ewald energy   TEWEN  =    -32445.12223816
  -Hartree energ DENC   =     -8516.72857732
  -exchange      EXHF   =         0.00000000
  -V(xc)+E(xc)   XCENC  =      1343.41851971
  PAW double counting   =     44574.51416166   -45667.21120329
  entropy T*S    EENTRO =        -0.00233376
  eigenvalues    EBANDS =      -998.08580776
  atomic energy  EATOM  =     39706.97890092
  Solvation  Ediel_sol  =         0.00000000
  ---------------------------------------------------
  free energy    TOTEN  =      -287.21604051 eV

  energy without entropy =     -287.21370675  energy(sigma->0) =     -287.21487363


--------------------------------------------------------------------------------------------------------




--------------------------------------- Iteration      4(  11)  ---------------------------------------


    POTLOK:  cpu time    0.0536: real time    0.0536
    SETDIJ:  cpu time    0.0067: real time    0.0067
     EDDAV:  cpu time   22.3668: real time   22.3739
       DOS:  cpu time    0.0035: real time    0.0035
