 vasp.5.4.4.18Apr17-6-g9f103f2a35 (build Apr 24 2023 09:55:28) complex          
  
 executed on             LinuxIFC date 2024.04.16  07:12:55
 running on   35 total cores
 distrk:  each k-point on   35 cores,    1 groups
 distr:  one band on NCORES_PER_BAND=   7 cores,    5 groups


--------------------------------------------------------------------------------------------------------


 INCAR:
 POTCAR:    PAW_PBE Ca_sv 06Sep2000               
 POTCAR:    PAW_PBE Fe 06Sep2000                  
 POTCAR:    PAW_PBE B 06Sep2000                   
 POTCAR:    PAW_PBE Ca_sv 06Sep2000               
   VRHFIN =Ca: 3s3p4s                                                           
   LEXCH  = PE                                                                  
   EATOM  =  1006.0909 eV,   73.9456 Ry                                         
                                                                                
   TITEL  = PAW_PBE Ca_sv 06Sep2000                                             
   LULTRA =        F    use ultrasoft PP ?                                      
   IUNSCR =        1    unscreen: 0-lin 1-nonlin 2-no                           
   RPACOR =    2.000    partial core radius                                     
   POMASS =   40.078; ZVAL   =   10.000    mass and valenz                      
   RCORE  =    2.300    outmost cutoff radius                                   
   RWIGS  =    2.500; RWIGS  =    1.323    wigner-seitz radius (au A)           
   ENMAX  =  266.622; ENMIN  =  199.967 eV                                      
   RCLOC  =    1.808    cutoff for local pot                                    
   LCOR   =        T    correct aug charges                                     
   LPAW   =        T    paw PP                                                  
   EAUG   =  420.852                                                            
   RMAX   =    2.359    core radius for proj-oper                               
   RAUG   =    1.300    factor for augmentation sphere                          
   RDEP   =    2.392    radius for radial grids                                 
   RDEPT  =    1.987    core radius for aug-charge                              
                                                                                
   Atomic configuration                                                         
    7 entries                                                                   
     n  l   j            E        occ.                                          
     1  0  0.50     -3949.1705   2.0000                                         
     2  0  0.50      -414.3434   2.0000                                         
     2  1  1.50      -334.7047   6.0000                                         
     3  0  0.50       -47.0896   2.0000                                         
     4  0  0.50        -3.7663   2.0000                                         
     3  1  1.50       -28.0061   6.0000                                         
     3  2  1.50        -4.0817   0.0000                                         
   Description                                                                  
     l       E           TYP  RCUT    TYP  RCUT                                 
     0    -47.0896403     23  2.300                                             
     0     -3.7663320     23  2.300                                             
     1    -28.0060855     23  2.300                                             
     1      6.8029130     23  2.300                                             
     2     -4.0817478     23  2.300                                             
     2      0.4464412     23  2.300                                             
  local pseudopotential read in
  partial core-charges read in
  partial kinetic energy density read in
  atomic valenz-charges read in
  non local Contribution for L=           0  read in
    real space projection operators read in
  non local Contribution for L=           0  read in
    real space projection operators read in
  non local Contribution for L=           1  read in
    real space projection operators read in
  non local Contribution for L=           1  read in
    real space projection operators read in
  non local Contribution for L=           2  read in
    real space projection operators read in
  non local Contribution for L=           2  read in
    real space projection operators read in
    PAW grid and wavefunctions read in
 
   number of l-projection  operators is LMAX  =           6
   number of lm-projection operators is LMMAX =          18
 
 POTCAR:    PAW_PBE Fe 06Sep2000                  
   VRHFIN =Fe:  d7 s1                                                           
   LEXCH  = PE                                                                  
   EATOM  =   594.3153 eV,   43.6809 Ry                                         
                                                                                
   TITEL  = PAW_PBE Fe 06Sep2000                                                
   LULTRA =        F    use ultrasoft PP ?                                      
   IUNSCR =        1    unscreen: 0-lin 1-nonlin 2-no                           
   RPACOR =    2.000    partial core radius                                     
   POMASS =   55.847; ZVAL   =    8.000    mass and valenz                      
   RCORE  =    2.300    outmost cutoff radius                                   
   RWIGS  =    2.460; RWIGS  =    1.302    wigner-seitz radius (au A)           
   ENMAX  =  267.882; ENMIN  =  200.911 eV                                      
   RCLOC  =    1.701    cutoff for local pot                                    
   LCOR   =        T    correct aug charges                                     
   LPAW   =        T    paw PP                                                  
   EAUG   =  511.368                                                            
   DEXC   =    0.000                                                            
   RMAX   =    2.356    core radius for proj-oper                               
   RAUG   =    1.300    factor for augmentation sphere                          
   RDEP   =    2.442    radius for radial grids                                 
   RDEPT  =    1.890    core radius for aug-charge                              
                                                                                
   Atomic configuration                                                         
    9 entries                                                                   
     n  l   j            E        occ.                                          
     1  0  0.50     -6993.8440   2.0000                                         
     2  0  0.50      -814.6047   2.0000                                         
     2  1  1.50      -693.3689   6.0000                                         
     3  0  0.50       -89.4732   2.0000                                         
     3  1  1.50       -55.6373   6.0000                                         
     3  2  2.50        -3.8151   7.0000                                         
     4  0  0.50        -4.2551   1.0000                                         
     4  1  1.50        -3.4015   0.0000                                         
     4  3  2.50        -1.3606   0.0000                                         
   Description                                                                  
     l       E           TYP  RCUT    TYP  RCUT                                 
     2     -3.8151135     23  2.300                                             
     2     -5.1756961     23  2.300                                             
     0     -4.2550963     23  2.300                                             
     0      7.2035603     23  2.300                                             
     1     -2.7211652     23  2.300                                             
     1     18.4316424     23  2.300                                             
  local pseudopotential read in
  partial core-charges read in
  partial kinetic energy density read in
  atomic valenz-charges read in
  non local Contribution for L=           2  read in
    real space projection operators read in
  non local Contribution for L=           2  read in
    real space projection operators read in
  non local Contribution for L=           0  read in
    real space projection operators read in
  non local Contribution for L=           0  read in
    real space projection operators read in
  non local Contribution for L=           1  read in
    real space projection operators read in
  non local Contribution for L=           1  read in
    real space projection operators read in
    PAW grid and wavefunctions read in
 
   number of l-projection  operators is LMAX  =           6
   number of lm-projection operators is LMMAX =          18
 
 POTCAR:    PAW_PBE B 06Sep2000                   
   VRHFIN =B: s2p1                                                              
   LEXCH  = PE                                                                  
   EATOM  =    71.1703 eV,    5.2309 Ry                                         
                                                                                
   TITEL  = PAW_PBE B 06Sep2000                                                 
   LULTRA =        F    use ultrasoft PP ?                                      
   IUNSCR =        1    unscreen: 0-lin 1-nonlin 2-no                           
   RPACOR =    1.200    partial core radius                                     
   POMASS =   10.811; ZVAL   =    3.000    mass and valenz                      
   RCORE  =    1.700    outmost cutoff radius                                   
   RWIGS  =    1.710; RWIGS  =    0.905    wigner-seitz radius (au A)           
   ENMAX  =  318.614; ENMIN  =  238.960 eV                                      
   ICORE  =        2    local potential                                         
   LCOR   =        T    correct aug charges                                     
   LPAW   =        T    paw PP                                                  
   EAUG   =  535.514                                                            
   DEXC   =    0.000                                                            
   RMAX   =    1.732    core radius for proj-oper                               
   RAUG   =    1.300    factor for augmentation sphere                          
   RDEP   =    1.757    radius for radial grids                                 
   RDEPT  =    1.436    core radius for aug-charge                              
                                                                                
   Atomic configuration                                                         
    4 entries                                                                   
     n  l   j            E        occ.                                          
     1  0  0.50      -180.5896   2.0000                                         
     2  0  0.50        -9.4431   2.0000                                         
     2  1  0.50        -3.6068   1.0000                                         
     3  2  1.50        -4.0817   0.0000                                         
   Description                                                                  
     l       E           TYP  RCUT    TYP  RCUT                                 
     0     -9.4430752     23  1.500                                             
     0      0.8675899     23  1.500                                             
     1     -3.6067955     23  1.700                                             
     1      6.1086146     23  1.700                                             
     2     -4.0817478      7  1.700                                             
  local pseudopotential read in
  partial core-charges read in
  partial kinetic energy density read in
  atomic valenz-charges read in
  non local Contribution for L=           0  read in
    real space projection operators read in
  non local Contribution for L=           0  read in
    real space projection operators read in
  non local Contribution for L=           1  read in
    real space projection operators read in
  non local Contribution for L=           1  read in
    real space projection operators read in
    PAW grid and wavefunctions read in
 
   number of l-projection  operators is LMAX  =           4
   number of lm-projection operators is LMMAX =           8
 
  PAW_PBE Ca_sv 06Sep2000               :
 energy of atom  1       EATOM=-1006.0909
 kinetic energy error for atom=    0.0058 (will be added to EATOM!!)
  PAW_PBE Fe 06Sep2000                  :
 energy of atom  2       EATOM= -594.3153
 kinetic energy error for atom=    0.0088 (will be added to EATOM!!)
  PAW_PBE B 06Sep2000                   :
 energy of atom  3       EATOM=  -71.1703
 kinetic energy error for atom=    0.0020 (will be added to EATOM!!)
 
 
 POSCAR: Ca2 Fe2 B2                              
  positions in direct lattice
  No initial velocities read in
 exchange correlation table for  LEXCH =        8
   RHO(1)=    0.500       N(1)  =     2000
   RHO(2)=  100.500       N(2)  =     4000
 


--------------------------------------------------------------------------------------------------------


 ion  position               nearest neighbor table
   1  0.500  0.500  0.513-   6 2.51   6 2.51   6 2.51   6 2.51   3 3.06   3 3.06   3 3.06   3 3.06

   2  0.500  0.500  0.013-   5 2.51   5 2.51   5 2.51   5 2.51   4 3.06   4 3.06   4 3.06   4 3.06

   3  0.000  0.000  0.752-   6 1.75   5 1.92   1 3.06   1 3.06   1 3.06   1 3.06
   4  0.000  0.000  0.252-   5 1.75   6 1.92   2 3.06   2 3.06   2 3.06   2 3.06
   5  0.000  0.000  0.014-   4 1.75   3 1.92   2 2.51   2 2.51   2 2.51   2 2.51
   6  0.000  0.000  0.514-   3 1.75   4 1.92   1 2.51   1 2.51   1 2.51   1 2.51
 
  LATTYP: Found a simple tetragonal cell.
 ALAT       =     3.5429200000
 C/A-ratio  =     2.0761885676
  
  Lattice vectors:
  
 A1 = (   3.5429200000,   0.0000000000,   0.0000000000)
 A2 = (   0.0000000000,   3.5429200000,   0.0000000000)
 A3 = (   0.0000000000,   0.0000000000,   7.3557700000)


Analysis of symmetry for initial positions (statically):
=====================================================================
 Subroutine PRICEL returns following result:
 
  LATTYP: Found a simple tetragonal cell.
 ALAT       =     3.5429200000
 C/A-ratio  =     1.0380942838
  
  Lattice vectors:
  
 A1 = (   3.5429200000,   0.0000000000,   0.0000000000)
 A2 = (   0.0000000000,   3.5429200000,   0.0000000000)
 A3 = (   0.0000000000,   0.0000000000,   3.6778850000)
 
   2 primitive cells build up your supercell.
 

 Routine SETGRP: Setting up the symmetry group for a 
 simple tetragonal supercell.


 Subroutine GETGRP returns: Found  8 space group operations
 (whereof  8 operations were pure point group operations)
 out of a pool of 16 trial point group operations.


The static configuration has the point symmetry C_4v.


Analysis of symmetry for dynamics (positions and initial velocities):
=====================================================================
 Subroutine PRICEL returns following result:
 
  LATTYP: Found a simple tetragonal cell.
 ALAT       =     3.5429200000
 C/A-ratio  =     1.0380942838
  
  Lattice vectors:
  
 A1 = (   3.5429200000,   0.0000000000,   0.0000000000)
 A2 = (   0.0000000000,   3.5429200000,   0.0000000000)
 A3 = (   0.0000000000,   0.0000000000,   3.6778850000)
 
   2 primitive cells build up your supercell.
 

 Routine SETGRP: Setting up the symmetry group for a 
 simple tetragonal supercell.


 Subroutine GETGRP returns: Found  8 space group operations
 (whereof  8 operations were pure point group operations)
 out of a pool of 16 trial point group operations.


The dynamic configuration has the point symmetry C_4v.


 Subroutine INISYM returns: Found  8 space group operations
 (whereof  8 operations are pure point group operations),
 and found     2 'primitive' translations

 
 
 KPOINTS: Automatic mesh                          

Automatic generation of k-mesh.
 generate k-points for:    8    8    4
Space group operators:
 irot       det(A)        alpha          n_x          n_y          n_z        tau_x        tau_y        tau_z
    1     1.000000     0.000000     1.000000     0.000000     0.000000     0.000000     0.000000     0.000000
    2     1.000000    90.000000     0.000000     0.000000    -1.000000     0.000000     0.000000     0.000000
    3     1.000000   180.000000     0.000000     0.000000     1.000000     0.000000     0.000000     0.000000
    4     1.000000    90.000000     0.000000     0.000000     1.000000     0.000000     0.000000     0.000000
    5    -1.000000   180.000000     0.000000     1.000000     0.000000     0.000000     0.000000     0.000000
    6    -1.000000   180.000000     0.707107     0.707107     0.000000     0.000000     0.000000     0.000000
    7    -1.000000   180.000000     1.000000     0.000000     0.000000     0.000000     0.000000     0.000000
    8    -1.000000   180.000000     0.707107    -0.707107     0.000000     0.000000     0.000000     0.000000
 
 Subroutine IBZKPT returns following result:
 ===========================================
 
 Found     45 irreducible k-points:
 
 Following reciprocal coordinates:
            Coordinates               Weight
  0.000000  0.000000  0.000000      1.000000
  0.125000  0.000000  0.000000      4.000000
  0.250000  0.000000  0.000000      4.000000
  0.375000  0.000000  0.000000      4.000000
  0.500000  0.000000  0.000000      2.000000
  0.125000  0.125000  0.000000      4.000000
  0.250000  0.125000  0.000000      8.000000
  0.375000  0.125000  0.000000      8.000000
  0.500000  0.125000  0.000000      4.000000
  0.250000  0.250000  0.000000      4.000000
  0.375000  0.250000  0.000000      8.000000
  0.500000  0.250000  0.000000      4.000000
  0.375000  0.375000  0.000000      4.000000
  0.500000  0.375000  0.000000      4.000000
  0.500000  0.500000  0.000000      1.000000
  0.000000  0.000000  0.250000      2.000000
  0.125000  0.000000  0.250000      8.000000
  0.250000  0.000000  0.250000      8.000000
  0.375000  0.000000  0.250000      8.000000
  0.500000  0.000000  0.250000      4.000000
  0.125000  0.125000  0.250000      8.000000
  0.250000  0.125000  0.250000     16.000000
  0.375000  0.125000  0.250000     16.000000
  0.500000  0.125000  0.250000      8.000000
  0.250000  0.250000  0.250000      8.000000
  0.375000  0.250000  0.250000     16.000000
  0.500000  0.250000  0.250000      8.000000
  0.375000  0.375000  0.250000      8.000000
  0.500000  0.375000  0.250000      8.000000
  0.500000  0.500000  0.250000      2.000000
  0.000000  0.000000  0.500000      1.000000
  0.125000  0.000000  0.500000      4.000000
  0.250000  0.000000  0.500000      4.000000
  0.375000  0.000000  0.500000      4.000000
  0.500000  0.000000  0.500000      2.000000
  0.125000  0.125000  0.500000      4.000000
  0.250000  0.125000  0.500000      8.000000
  0.375000  0.125000  0.500000      8.000000
  0.500000  0.125000  0.500000      4.000000
  0.250000  0.250000  0.500000      4.000000
  0.375000  0.250000  0.500000      8.000000
  0.500000  0.250000  0.500000      4.000000
  0.375000  0.375000  0.500000      4.000000
  0.500000  0.375000  0.500000      4.000000
  0.500000  0.500000  0.500000      1.000000
 
 Following cartesian coordinates:
            Coordinates               Weight
  0.000000  0.000000  0.000000      1.000000
  0.035282  0.000000  0.000000      4.000000
  0.070563  0.000000  0.000000      4.000000
  0.105845  0.000000  0.000000      4.000000
  0.141127  0.000000  0.000000      2.000000
  0.035282  0.035282  0.000000      4.000000
  0.070563  0.035282  0.000000      8.000000
  0.105845  0.035282  0.000000      8.000000
  0.141127  0.035282  0.000000      4.000000
  0.070563  0.070563  0.000000      4.000000
  0.105845  0.070563  0.000000      8.000000
  0.141127  0.070563  0.000000      4.000000
  0.105845  0.105845  0.000000      4.000000
  0.141127  0.105845  0.000000      4.000000
  0.141127  0.141127  0.000000      1.000000
  0.000000  0.000000  0.033987      2.000000
  0.035282  0.000000  0.033987      8.000000
  0.070563  0.000000  0.033987      8.000000
  0.105845  0.000000  0.033987      8.000000
  0.141127  0.000000  0.033987      4.000000
  0.035282  0.035282  0.033987      8.000000
  0.070563  0.035282  0.033987     16.000000
  0.105845  0.035282  0.033987     16.000000
  0.141127  0.035282  0.033987      8.000000
  0.070563  0.070563  0.033987      8.000000
  0.105845  0.070563  0.033987     16.000000
  0.141127  0.070563  0.033987      8.000000
  0.105845  0.105845  0.033987      8.000000
  0.141127  0.105845  0.033987      8.000000
  0.141127  0.141127  0.033987      2.000000
  0.000000  0.000000  0.067974      1.000000
  0.035282  0.000000  0.067974      4.000000
  0.070563  0.000000  0.067974      4.000000
  0.105845  0.000000  0.067974      4.000000
  0.141127  0.000000  0.067974      2.000000
  0.035282  0.035282  0.067974      4.000000
  0.070563  0.035282  0.067974      8.000000
  0.105845  0.035282  0.067974      8.000000
  0.141127  0.035282  0.067974      4.000000
  0.070563  0.070563  0.067974      4.000000
  0.105845  0.070563  0.067974      8.000000
  0.141127  0.070563  0.067974      4.000000
  0.105845  0.105845  0.067974      4.000000
  0.141127  0.105845  0.067974      4.000000
  0.141127  0.141127  0.067974      1.000000
 


--------------------------------------------------------------------------------------------------------




 Dimension of arrays:
   k-points           NKPTS =     45   k-points in BZ     NKDIM =     45   number of bands    NBANDS=     25
   number of dos      NEDOS =    301   number of ions     NIONS =      6
   non local maximal  LDIM  =      6   non local SUM 2l+1 LMDIM =     18
   total plane-waves  NPLWV =  27648
   max r-space proj   IRMAX =      1   max aug-charges    IRDMAX=  14485
   dimension x,y,z NGX =    24 NGY =   24 NGZ =   48
   dimension x,y,z NGXF=    48 NGYF=   48 NGZF=   96
   support grid    NGXF=    48 NGYF=   48 NGZF=   96
   ions per type =               2   2   2
   NGX,Y,Z   is equivalent  to a cutoff of  11.26, 11.26, 10.85 a.u.
   NGXF,Y,Z  is equivalent  to a cutoff of  22.52, 22.52, 21.70 a.u.

 SYSTEM =  DFT routine                             
 POSCAR =  Ca2 Fe2 B2                              

 Startparameter for this run:
   NWRITE =      2    write-flag & timer
   PREC   = acc       normal or accurate (medium, high low for compatibility)
   ISTART =      0    job   : 0-new  1-cont  2-samecut
   ICHARG =      2    charge: 1-file 2-atom 10-const
   ISPIN  =      1    spin polarized calculation?
   LNONCOLLINEAR =      F non collinear calculations
   LSORBIT =      F    spin-orbit coupling
   INIWAV =      1    electr: 0-lowe 1-rand  2-diag
   LASPH  =      F    aspherical Exc in radial PAW
   METAGGA=      F    non-selfconsistent MetaGGA calc.

 Electronic Relaxation 1
   ENCUT  =  400.0 eV  29.40 Ry    5.42 a.u.   5.78  5.78 12.00*2*pi/ulx,y,z
   ENINI  =  400.0     initial cutoff
   ENAUG  =  535.5 eV  augmentation charge cutoff
   NELM   =    100;   NELMIN=  2; NELMDL= -5     # of ELM steps 
   EDIFF  = 0.1E-04   stopping-criterion for ELM
   LREAL  =      F    real-space projection
   NLSPLINE    = F    spline interpolate recip. space projectors
   LCOMPAT=      F    compatible to vasp.4.4
   GGA_COMPAT  = T    GGA compatible to vasp.4.4-vasp.4.6
   LMAXPAW     = -100 max onsite density
   LMAXMIX     =    2 max onsite mixed and CHGCAR
   VOSKOWN=      0    Vosko Wilk Nusair interpolation
   ROPT   =    0.00000   0.00000   0.00000
 Ionic relaxation
   EDIFFG = 0.1E-03   stopping-criterion for IOM
   NSW    =      3    number of steps for IOM
   NBLOCK =      1;   KBLOCK =      3    inner block; outer block 
   IBRION =      1    ionic relax: 0-MD 1-quasi-New 2-CG
   NFREE  =      0    steps in history (QN), initial steepest desc. (CG)
   ISIF   =      3    stress and relaxation
   IWAVPR =     11    prediction:  0-non 1-charg 2-wave 3-comb
   ISYM   =      2    0-nonsym 1-usesym 2-fastsym
   LCORR  =      T    Harris-Foulkes like correction to forces

   POTIM  = 0.1000    time-step for ionic-motion
   TEIN   =    0.0    initial temperature
   TEBEG  =    0.0;   TEEND  =   0.0 temperature during run
   SMASS  =  -3.00    Nose mass-parameter (am)
   estimated Nose-frequenzy (Omega)   =  0.10E-29 period in steps =****** mass=  -0.287E-27a.u.
   SCALEE = 1.0000    scale energy and forces
   NPACO  =    256;   APACO  = 16.0  distance and # of slots for P.C.
   PSTRESS=    0.0 pullay stress

  Mass of Ions in am
   POMASS =  40.08 55.85 10.81
  Ionic Valenz
   ZVAL   =  10.00  8.00  3.00
  Atomic Wigner-Seitz radii
   RWIGS  =  -1.00 -1.00 -1.00
  virtual crystal weights 
   VCA    =   1.00  1.00  1.00
   NELECT =      42.0000    total number of electrons
   NUPDOWN=      -1.0000    fix difference up-down

 DOS related values:
   EMIN   =  10.00;   EMAX   =-10.00  energy-range for DOS
   EFERMI =   0.00
   ISMEAR =     0;   SIGMA  =   0.01  broadening in eV -4-tet -1-fermi 0-gaus

 Electronic relaxation 2 (details)
   IALGO  =     38    algorithm
   LDIAG  =      T    sub-space diagonalisation (order eigenvalues)
   LSUBROT=      F    optimize rotation matrix (better conditioning)
   TURBO    =      0    0=normal 1=particle mesh
   IRESTART =      0    0=no restart 2=restart with 2 vectors
   NREBOOT  =      0    no. of reboots
   NMIN     =      0    reboot dimension
   EREF     =   0.00    reference energy to select bands
   IMIX   =      4    mixing-type and parameters
     AMIX     =   0.40;   BMIX     =  1.00
     AMIX_MAG =   1.60;   BMIX_MAG =  1.00
     AMIN     =   0.10
     WC   =   100.;   INIMIX=   1;  MIXPRE=   1;  MAXMIX= -45

 Intra band minimization:
   WEIMIN = 0.0010     energy-eigenvalue tresh-hold
   EBREAK =  0.10E-06  absolut break condition
   DEPER  =   0.30     relativ break condition  

   TIME   =   0.40     timestep for ELM

  volume/ion in A,a.u.               =      15.39       103.85
  Fermi-wavevector in a.u.,A,eV,Ry     =   1.259044  2.379249 21.567851  1.585192
  Thomas-Fermi vector in A             =   2.392624
 
 Write flags
   LWAVE        =      F    write WAVECAR
   LDOWNSAMPLE  =      F    k-point downsampling of WAVECAR
   LCHARG       =      F    write CHGCAR
   LVTOT        =      F    write LOCPOT, total local potential
   LVHAR        =      F    write LOCPOT, Hartree potential only
   LELF         =      F    write electronic localiz. function (ELF)
   LORBIT       =     10    0 simple, 1 ext, 2 COOP (PROOUT), +10 PAW based schemes


 Dipole corrections
   LMONO  =      F    monopole corrections only (constant potential shift)
   LDIPOL =      F    correct potential (dipole corrections)
   IDIPOL =      0    1-x, 2-y, 3-z, 4-all directions 
   EPSILON=  1.0000000 bulk dielectric constant

 Exchange correlation treatment:
   GGA     =    --    GGA type
   LEXCH   =     8    internal setting for exchange type
   VOSKOWN=      0    Vosko Wilk Nusair interpolation
   LHFCALC =     F    Hartree Fock is set to
   LHFONE  =     F    Hartree Fock one center treatment
   AEXX    =    0.0000 exact exchange contribution

 Linear response parameters
   LEPSILON=     F    determine dielectric tensor
   LRPA    =     F    only Hartree local field effects (RPA)
   LNABLA  =     F    use nabla operator in PAW spheres
   LVEL    =     F    velocity operator in full k-point grid
   LINTERFAST=   F  fast interpolation
   KINTER  =     0    interpolate to denser k-point grid
   CSHIFT  =0.1000    complex shift for real part using Kramers Kronig
   OMEGAMAX=  -1.0    maximum frequency
   DEG_THRESHOLD= 0.2000000E-02 threshold for treating states as degnerate
   RTIME   =   -0.100 relaxation time in fs
  (WPLASMAI=    0.000 imaginary part of plasma frequency in eV, 0.658/RTIME)
   DFIELD  = 0.0000000 0.0000000 0.0000000 field for delta impulse in time
 
 Orbital magnetization related:
   ORBITALMAG=     F  switch on orbital magnetization
   LCHIMAG   =     F  perturbation theory with respect to B field
   DQ        =  0.001000  dq finite difference perturbation B field
   LLRAUG    =     F  two centre corrections for induced B field



--------------------------------------------------------------------------------------------------------


 quasi-Newton-method for relaxation of ions
 charge density and potential will be updated during run
 non-spin polarized calculation
 Variant of blocked Davidson
 Davidson routine will perform the subspace rotation
 perform sub-space diagonalisation
    after iterative eigenvector-optimisation
 modified Broyden-mixing scheme, WC =      100.0
 initial mixing is a Kerker type mixing with AMIX =  0.4000 and BMIX =      1.0000
 Hartree-type preconditioning will be used
 using additional bands            4
 reciprocal scheme for non local part
 use partial core corrections
 calculate Harris-corrections to forces 
   (improved forces if not selfconsistent)
 use gradient corrections 
 use of overlap-Matrix (Vanderbilt PP)
 Gauss-broadening in eV      SIGMA  =   0.01


--------------------------------------------------------------------------------------------------------


  energy-cutoff  :      400.00
  volume of cell :       92.33
      direct lattice vectors                 reciprocal lattice vectors
     3.542920000  0.000000000  0.000000000     0.282253057  0.000000000  0.000000000
     0.000000000  3.542920000  0.000000000     0.000000000  0.282253057  0.000000000
     0.000000000  0.000000000  7.355770000     0.000000000  0.000000000  0.135947698

  length of vectors
     3.542920000  3.542920000  7.355770000     0.282253057  0.282253057  0.135947698


 
 k-points in units of 2pi/SCALE and weight: Automatic mesh                          
   0.00000000  0.00000000  0.00000000       0.004
   0.03528163  0.00000000  0.00000000       0.016
   0.07056326  0.00000000  0.00000000       0.016
   0.10584490  0.00000000  0.00000000       0.016
   0.14112653  0.00000000  0.00000000       0.008
   0.03528163  0.03528163  0.00000000       0.016
   0.07056326  0.03528163  0.00000000       0.031
   0.10584490  0.03528163  0.00000000       0.031
   0.14112653  0.03528163  0.00000000       0.016
   0.07056326  0.07056326  0.00000000       0.016
   0.10584490  0.07056326  0.00000000       0.031
   0.14112653  0.07056326  0.00000000       0.016
   0.10584490  0.10584490  0.00000000       0.016
   0.14112653  0.10584490  0.00000000       0.016
   0.14112653  0.14112653  0.00000000       0.004
   0.00000000  0.00000000  0.03398692       0.008
   0.03528163  0.00000000  0.03398692       0.031
   0.07056326  0.00000000  0.03398692       0.031
   0.10584490  0.00000000  0.03398692       0.031
   0.14112653  0.00000000  0.03398692       0.016
   0.03528163  0.03528163  0.03398692       0.031
   0.07056326  0.03528163  0.03398692       0.062
   0.10584490  0.03528163  0.03398692       0.062
   0.14112653  0.03528163  0.03398692       0.031
   0.07056326  0.07056326  0.03398692       0.031
   0.10584490  0.07056326  0.03398692       0.062
   0.14112653  0.07056326  0.03398692       0.031
   0.10584490  0.10584490  0.03398692       0.031
   0.14112653  0.10584490  0.03398692       0.031
   0.14112653  0.14112653  0.03398692       0.008
   0.00000000  0.00000000  0.06797385       0.004
   0.03528163  0.00000000  0.06797385       0.016
   0.07056326  0.00000000  0.06797385       0.016
   0.10584490  0.00000000  0.06797385       0.016
   0.14112653  0.00000000  0.06797385       0.008
   0.03528163  0.03528163  0.06797385       0.016
   0.07056326  0.03528163  0.06797385       0.031
   0.10584490  0.03528163  0.06797385       0.031
   0.14112653  0.03528163  0.06797385       0.016
   0.07056326  0.07056326  0.06797385       0.016
   0.10584490  0.07056326  0.06797385       0.031
   0.14112653  0.07056326  0.06797385       0.016
   0.10584490  0.10584490  0.06797385       0.016
   0.14112653  0.10584490  0.06797385       0.016
   0.14112653  0.14112653  0.06797385       0.004
 
 k-points in reciprocal lattice and weights: Automatic mesh                          
   0.00000000  0.00000000  0.00000000       0.004
   0.12500000  0.00000000  0.00000000       0.016
   0.25000000  0.00000000  0.00000000       0.016
   0.37500000  0.00000000  0.00000000       0.016
   0.50000000  0.00000000  0.00000000       0.008
   0.12500000  0.12500000  0.00000000       0.016
   0.25000000  0.12500000  0.00000000       0.031
   0.37500000  0.12500000  0.00000000       0.031
   0.50000000  0.12500000  0.00000000       0.016
   0.25000000  0.25000000  0.00000000       0.016
   0.37500000  0.25000000  0.00000000       0.031
   0.50000000  0.25000000  0.00000000       0.016
   0.37500000  0.37500000  0.00000000       0.016
   0.50000000  0.37500000  0.00000000       0.016
   0.50000000  0.50000000  0.00000000       0.004
   0.00000000  0.00000000  0.25000000       0.008
   0.12500000  0.00000000  0.25000000       0.031
   0.25000000  0.00000000  0.25000000       0.031
   0.37500000  0.00000000  0.25000000       0.031
   0.50000000  0.00000000  0.25000000       0.016
   0.12500000  0.12500000  0.25000000       0.031
   0.25000000  0.12500000  0.25000000       0.062
   0.37500000  0.12500000  0.25000000       0.062
   0.50000000  0.12500000  0.25000000       0.031
   0.25000000  0.25000000  0.25000000       0.031
   0.37500000  0.25000000  0.25000000       0.062
   0.50000000  0.25000000  0.25000000       0.031
   0.37500000  0.37500000  0.25000000       0.031
   0.50000000  0.37500000  0.25000000       0.031
   0.50000000  0.50000000  0.25000000       0.008
   0.00000000  0.00000000  0.50000000       0.004
   0.12500000  0.00000000  0.50000000       0.016
   0.25000000  0.00000000  0.50000000       0.016
   0.37500000  0.00000000  0.50000000       0.016
   0.50000000  0.00000000  0.50000000       0.008
   0.12500000  0.12500000  0.50000000       0.016
   0.25000000  0.12500000  0.50000000       0.031
   0.37500000  0.12500000  0.50000000       0.031
   0.50000000  0.12500000  0.50000000       0.016
   0.25000000  0.25000000  0.50000000       0.016
   0.37500000  0.25000000  0.50000000       0.031
   0.50000000  0.25000000  0.50000000       0.016
   0.37500000  0.37500000  0.50000000       0.016
   0.50000000  0.37500000  0.50000000       0.016
   0.50000000  0.50000000  0.50000000       0.004
 
 position of ions in fractional coordinates (direct lattice) 
   0.50000000  0.50000000  0.51283000
   0.50000000  0.50000000  0.01283000
   0.00000000  0.00000000  0.75219000
   0.00000000  0.00000000  0.25219000
   0.00000000  0.00000000  0.01386000
   0.00000000  0.00000000  0.51386000
 
 position of ions in cartesian coordinates  (Angst):
   1.77146000  1.77146000  3.77225953
   1.77146000  1.77146000  0.09437453
   0.00000000  0.00000000  5.53293664
   0.00000000  0.00000000  1.85505164
   0.00000000  0.00000000  0.10195097
   0.00000000  0.00000000  3.77983597
 


--------------------------------------------------------------------------------------------------------


 k-point  1 :   0.0000 0.0000 0.0000  plane waves:    1699
 k-point  2 :   0.1250 0.0000 0.0000  plane waves:    1681
 k-point  3 :   0.2500 0.0000 0.0000  plane waves:    1666
 k-point  4 :   0.3750 0.0000 0.0000  plane waves:    1666
 k-point  5 :   0.5000 0.0000 0.0000  plane waves:    1684
 k-point  6 :   0.1250 0.1250 0.0000  plane waves:    1684
 k-point  7 :   0.2500 0.1250 0.0000  plane waves:    1672
 k-point  8 :   0.3750 0.1250 0.0000  plane waves:    1679
 k-point  9 :   0.5000 0.1250 0.0000  plane waves:    1676
 k-point 10 :   0.2500 0.2500 0.0000  plane waves:    1666
 k-point 11 :   0.3750 0.2500 0.0000  plane waves:    1674
 k-point 12 :   0.5000 0.2500 0.0000  plane waves:    1666
 k-point 13 :   0.3750 0.3750 0.0000  plane waves:    1684
 k-point 14 :   0.5000 0.3750 0.0000  plane waves:    1670
 k-point 15 :   0.5000 0.5000 0.0000  plane waves:    1688
 k-point 16 :   0.0000 0.0000 0.2500  plane waves:    1672
 k-point 17 :   0.1250 0.0000 0.2500  plane waves:    1671
 k-point 18 :   0.2500 0.0000 0.2500  plane waves:    1677
 k-point 19 :   0.3750 0.0000 0.2500  plane waves:    1683
 k-point 20 :   0.5000 0.0000 0.2500  plane waves:    1680
 k-point 21 :   0.1250 0.1250 0.2500  plane waves:    1667
 k-point 22 :   0.2500 0.1250 0.2500  plane waves:    1680
 k-point 23 :   0.3750 0.1250 0.2500  plane waves:    1680
 k-point 24 :   0.5000 0.1250 0.2500  plane waves:    1682
 k-point 25 :   0.2500 0.2500 0.2500  plane waves:    1678
 k-point 26 :   0.3750 0.2500 0.2500  plane waves:    1675
 k-point 27 :   0.5000 0.2500 0.2500  plane waves:    1674
 k-point 28 :   0.3750 0.3750 0.2500  plane waves:    1674
 k-point 29 :   0.5000 0.3750 0.2500  plane waves:    1676
 k-point 30 :   0.5000 0.5000 0.2500  plane waves:    1700
 k-point 31 :   0.0000 0.0000 0.5000  plane waves:    1656
 k-point 32 :   0.1250 0.0000 0.5000  plane waves:    1674
 k-point 33 :   0.2500 0.0000 0.5000  plane waves:    1694
 k-point 34 :   0.3750 0.0000 0.5000  plane waves:    1694
 k-point 35 :   0.5000 0.0000 0.5000  plane waves:    1692
 k-point 36 :   0.1250 0.1250 0.5000  plane waves:    1664
 k-point 37 :   0.2500 0.1250 0.5000  plane waves:    1676
 k-point 38 :   0.3750 0.1250 0.5000  plane waves:    1676
 k-point 39 :   0.5000 0.1250 0.5000  plane waves:    1684
 k-point 40 :   0.2500 0.2500 0.5000  plane waves:    1678
 k-point 41 :   0.3750 0.2500 0.5000  plane waves:    1672
 k-point 42 :   0.5000 0.2500 0.5000  plane waves:    1684
 k-point 43 :   0.3750 0.3750 0.5000  plane waves:    1680
 k-point 44 :   0.5000 0.3750 0.5000  plane waves:    1672
 k-point 45 :   0.5000 0.5000 0.5000  plane waves:    1680

 maximum and minimum number of plane-waves per node :       254      225

 maximum number of plane-waves:      1700
 maximum index in each direction: 
   IXMAX=    5   IYMAX=    5   IZMAX=   11
   IXMIN=   -6   IYMIN=   -6   IZMIN=  -12


 parallel 3D FFT for wavefunctions:
    minimum data exchange during FFTs selected (reduces bandwidth)
 parallel 3D FFT for charge:
    minimum data exchange during FFTs selected (reduces bandwidth)


 total amount of memory used by VASP MPI-rank0    37201. kBytes
=======================================================================

   base      :      30000. kBytes
   nonl-proj :       4981. kBytes
   fftplans  :        431. kBytes
   grid      :        784. kBytes
   one-center:         15. kBytes
   wavefun   :        990. kBytes
 
     INWAV:  cpu time    0.0000: real time    0.0000
 Broyden mixing: mesh for mixing (old mesh)
   NGX = 11   NGY = 11   NGZ = 23
  (NGX  = 48   NGY  = 48   NGZ  = 96)
  gives a total of   2783 points

 initial charge density was supplied:
 charge density of overlapping atoms calculated
 number of electron      42.0000000 magnetization 
 keeping initial charge density in first step


--------------------------------------------------------------------------------------------------------


 Maximum index for augmentation-charges          624 (set IRDMAX)


--------------------------------------------------------------------------------------------------------


 First call to EWALD:  gamma=   0.392
 Maximum number of real-space cells 3x 3x 2
 Maximum number of reciprocal cells 2x 2x 4

    FEWALD:  cpu time    0.0013: real time    0.0013


--------------------------------------- Iteration      1(   1)  ---------------------------------------


    POTLOK:  cpu time    0.0122: real time    0.0122
    SETDIJ:  cpu time    0.0030: real time    0.0030
     EDDAV:  cpu time    0.4926: real time    0.4927
       DOS:  cpu time    0.0014: real time    0.0014
    --------------------------------------------
      LOOP:  cpu time    0.5093: real time    0.5367

 eigenvalue-minimisations  :  2250
 total energy-change (2. order) : 0.3417820E+03  (-0.1703998E+04)
 number of electron      42.0000000 magnetization 
 augmentation part       42.0000000 magnetization 

 Free energy of the ion-electron system (eV)
  ---------------------------------------------------
  alpha Z        PSCENC =       214.95268659
  Ewald energy   TEWEN  =     -2647.29145885
  -Hartree energ DENC   =      -759.54939989
  -exchange      EXHF   =         0.00000000
  -V(xc)+E(xc)   XCENC  =       106.23839729
  PAW double counting   =      2688.88846108    -2682.54350385
  entropy T*S    EENTRO =        -0.00048405
  eigenvalues    EBANDS =        77.96749938
  atomic energy  EATOM  =      3343.11979913
  Solvation  Ediel_sol  =         0.00000000
  ---------------------------------------------------
  free energy    TOTEN  =       341.78199681 eV

  energy without entropy =      341.78248086  energy(sigma->0) =      341.78223883


--------------------------------------------------------------------------------------------------------




--------------------------------------- Iteration      1(   2)  ---------------------------------------


     EDDAV:  cpu time    0.4780: real time    0.5054
       DOS:  cpu time    0.0012: real time    0.0012
    --------------------------------------------
      LOOP:  cpu time    0.4792: real time    0.4792

 eigenvalue-minimisations  :  2290
 total energy-change (2. order) :-0.3454209E+03  (-0.3392800E+03)
 number of electron      42.0000000 magnetization 
 augmentation part       42.0000000 magnetization 

 Free energy of the ion-electron system (eV)
  ---------------------------------------------------
  alpha Z        PSCENC =       214.95268659
  Ewald energy   TEWEN  =     -2647.29145885
  -Hartree energ DENC   =      -759.54939989
  -exchange      EXHF   =         0.00000000
  -V(xc)+E(xc)   XCENC  =       106.23839729
  PAW double counting   =      2688.88846108    -2682.54350385
  entropy T*S    EENTRO =        -0.00047241
  eigenvalues    EBANDS =      -267.45340616
  atomic energy  EATOM  =      3343.11979913
  Solvation  Ediel_sol  =         0.00000000
  ---------------------------------------------------
  free energy    TOTEN  =        -3.63889709 eV

  energy without entropy =       -3.63842468  energy(sigma->0) =       -3.63866088


--------------------------------------------------------------------------------------------------------




--------------------------------------- Iteration      1(   3)  ---------------------------------------


     EDDAV:  cpu time    0.7749: real time    0.7750
       DOS:  cpu time    0.0012: real time    0.0012
    --------------------------------------------
      LOOP:  cpu time    0.7761: real time    0.7763

 eigenvalue-minimisations  :  4245
 total energy-change (2. order) :-0.3794343E+02  (-0.3636847E+02)
 number of electron      42.0000000 magnetization 
 augmentation part       42.0000000 magnetization 

 Free energy of the ion-electron system (eV)
  ---------------------------------------------------
  alpha Z        PSCENC =       214.95268659
  Ewald energy   TEWEN  =     -2647.29145885
  -Hartree energ DENC   =      -759.54939989
  -exchange      EXHF   =         0.00000000
  -V(xc)+E(xc)   XCENC  =       106.23839729
  PAW double counting   =      2688.88846108    -2682.54350385
  entropy T*S    EENTRO =        -0.00012024
  eigenvalues    EBANDS =      -305.39719183
  atomic energy  EATOM  =      3343.11979913
  Solvation  Ediel_sol  =         0.00000000
  ---------------------------------------------------
  free energy    TOTEN  =       -41.58233060 eV

  energy without entropy =      -41.58221036  energy(sigma->0) =      -41.58227048


--------------------------------------------------------------------------------------------------------




--------------------------------------- Iteration      1(   4)  ---------------------------------------


     EDDAV:  cpu time    0.6081: real time    0.6081
       DOS:  cpu time    0.0014: real time    0.0014
    --------------------------------------------
      LOOP:  cpu time    0.6095: real time    0.6095

 eigenvalue-minimisations  :  3270
 total energy-change (2. order) :-0.2125418E+01  (-0.2047326E+01)
 number of electron      42.0000000 magnetization 
 augmentation part       42.0000000 magnetization 

 Free energy of the ion-electron system (eV)
  ---------------------------------------------------
  alpha Z        PSCENC =       214.95268659
  Ewald energy   TEWEN  =     -2647.29145885
  -Hartree energ DENC   =      -759.54939989
  -exchange      EXHF   =         0.00000000
  -V(xc)+E(xc)   XCENC  =       106.23839729
  PAW double counting   =      2688.88846108    -2682.54350385
  entropy T*S    EENTRO =        -0.00035984
  eigenvalues    EBANDS =      -307.52237018
  atomic energy  EATOM  =      3343.11979913
  Solvation  Ediel_sol  =         0.00000000
  ---------------------------------------------------
  free energy    TOTEN  =       -43.70774854 eV

  energy without entropy =      -43.70738870  energy(sigma->0) =      -43.70756862


--------------------------------------------------------------------------------------------------------




--------------------------------------- Iteration      1(   5)  ---------------------------------------


     EDDAV:  cpu time    0.7238: real time    0.7239
       DOS:  cpu time    0.0013: real time    0.0013
    CHARGE:  cpu time    0.0234: real time    0.0234
    MIXING:  cpu time    0.0004: real time    0.0004
    --------------------------------------------
      LOOP:  cpu time    0.7489: real time    0.7490

 eigenvalue-minimisations  :  3965
 total energy-change (2. order) :-0.1219774E+00  (-0.1213062E+00)
 number of electron      42.0000002 magnetization 
 augmentation part        9.5793056 magnetization 

 Broyden mixing:
  rms(total) = 0.37556E+01    rms(broyden)= 0.37554E+01
  rms(prec ) = 0.60330E+01
  weight for this iteration     100.00

 Free energy of the ion-electron system (eV)
  ---------------------------------------------------
  alpha Z        PSCENC =       214.95268659
  Ewald energy   TEWEN  =     -2647.29145885
  -Hartree energ DENC   =      -759.54939989
  -exchange      EXHF   =         0.00000000
  -V(xc)+E(xc)   XCENC  =       106.23839729
  PAW double counting   =      2688.88846108    -2682.54350385
  entropy T*S    EENTRO =        -0.00025226
  eigenvalues    EBANDS =      -307.64445516
  atomic energy  EATOM  =      3343.11979913
  Solvation  Ediel_sol  =         0.00000000
  ---------------------------------------------------
  free energy    TOTEN  =       -43.82972595 eV

  energy without entropy =      -43.82947369  energy(sigma->0) =      -43.82959982


--------------------------------------------------------------------------------------------------------




--------------------------------------- Iteration      1(   6)  ---------------------------------------


    POTLOK:  cpu time    0.0073: real time    0.0073
    SETDIJ:  cpu time    0.0024: real time    0.0024
     EDDAV:  cpu time    0.6005: real time    0.6005
       DOS:  cpu time    0.0013: real time    0.0013
    CHARGE:  cpu time    0.0236: real time    0.0236
    MIXING:  cpu time    0.0004: real time    0.0004
    --------------------------------------------
      LOOP:  cpu time    0.6356: real time    0.6356

 eigenvalue-minimisations  :  3155
 total energy-change (2. order) :-0.6429863E+02  (-0.7400100E+02)
 number of electron      41.9999978 magnetization 
 augmentation part       20.2838737 magnetization 

 Broyden mixing:
  rms(total) = 0.10276E+02    rms(broyden)= 0.10276E+02
  rms(prec ) = 0.12606E+02
  weight for this iteration     100.00

 eigenvalues of (default mixing * dielectric matrix)
  average eigenvalue GAMMA=   0.1629
  0.1629

 Free energy of the ion-electron system (eV)
  ---------------------------------------------------
  alpha Z        PSCENC =       214.95268659
  Ewald energy   TEWEN  =     -2647.29145885
  -Hartree energ DENC   =      -658.42234024
  -exchange      EXHF   =         0.00000000
  -V(xc)+E(xc)   XCENC  =       102.29074223
  PAW double counting   =      2732.01182818    -2714.32149259
  entropy T*S    EENTRO =        -0.00011720
  eigenvalues    EBANDS =      -480.46800489
  atomic energy  EATOM  =      3343.11979913
  Solvation  Ediel_sol  =         0.00000000
  ---------------------------------------------------
  free energy    TOTEN  =      -108.12835765 eV

  energy without entropy =     -108.12824045  energy(sigma->0) =     -108.12829905


--------------------------------------------------------------------------------------------------------




--------------------------------------- Iteration      1(   7)  ---------------------------------------


    POTLOK:  cpu time    0.0072: real time    0.0072
    SETDIJ:  cpu time    0.0024: real time    0.0024
     EDDAV:  cpu time    0.5424: real time    0.5427
       DOS:  cpu time    0.0013: real time    0.0013
    CHARGE:  cpu time    0.0233: real time    0.0233
    MIXING:  cpu time    0.0004: real time    0.0004
    --------------------------------------------
      LOOP:  cpu time    0.5771: real time    0.5773

 eigenvalue-minimisations  :  2830
 total energy-change (2. order) : 0.6189630E+02  (-0.1066376E+02)
 number of electron      41.9999980 magnetization 
 augmentation part       17.9803274 magnetization 

 Broyden mixing:
  rms(total) = 0.35837E+01    rms(broyden)= 0.35837E+01
  rms(prec ) = 0.59216E+01
  weight for this iteration     100.00

 eigenvalues of (default mixing * dielectric matrix)
  average eigenvalue GAMMA=   0.4175
  0.4175  0.4175

 Free energy of the ion-electron system (eV)
  ---------------------------------------------------
  alpha Z        PSCENC =       214.95268659
  Ewald energy   TEWEN  =     -2647.29145885
  -Hartree energ DENC   =      -702.53808106
  -exchange      EXHF   =         0.00000000
  -V(xc)+E(xc)   XCENC  =       104.17229410
  PAW double counting   =      2954.71628406    -2952.17558242
  entropy T*S    EENTRO =        -0.00010566
  eigenvalues    EBANDS =      -361.18789337
  atomic energy  EATOM  =      3343.11979913
  Solvation  Ediel_sol  =         0.00000000
  ---------------------------------------------------
  free energy    TOTEN  =       -46.23205750 eV

  energy without entropy =      -46.23195183  energy(sigma->0) =      -46.23200467


--------------------------------------------------------------------------------------------------------




--------------------------------------- Iteration      1(   8)  ---------------------------------------


    POTLOK:  cpu time    0.0072: real time    0.0072
    SETDIJ:  cpu time    0.0024: real time    0.0024
     EDDAV:  cpu time    0.6582: real time    0.6583
       DOS:  cpu time    0.0013: real time    0.0013
    CHARGE:  cpu time    0.0229: real time    0.0229
    MIXING:  cpu time    0.0004: real time    0.0004
    --------------------------------------------
      LOOP:  cpu time    0.6925: real time    0.6926

 eigenvalue-minimisations  :  3615
 total energy-change (2. order) : 0.1669735E+02  (-0.6739877E+01)
 number of electron      41.9999999 magnetization 
 augmentation part       13.1870057 magnetization 

 Broyden mixing:
  rms(total) = 0.77454E+00    rms(broyden)= 0.77307E+00
  rms(prec ) = 0.92752E+00
  weight for this iteration     100.00

 eigenvalues of (default mixing * dielectric matrix)
  average eigenvalue GAMMA=   0.6528
  1.1527  0.4029  0.4029

 Free energy of the ion-electron system (eV)
  ---------------------------------------------------
  alpha Z        PSCENC =       214.95268659
  Ewald energy   TEWEN  =     -2647.29145885
  -Hartree energ DENC   =      -733.97858381
  -exchange      EXHF   =         0.00000000
  -V(xc)+E(xc)   XCENC  =       105.44011857
  PAW double counting   =      2998.63287834    -3004.06951867
  entropy T*S    EENTRO =        -0.00033410
  eigenvalues    EBANDS =      -306.34029501
  atomic energy  EATOM  =      3343.11979913
  Solvation  Ediel_sol  =         0.00000000
  ---------------------------------------------------
  free energy    TOTEN  =       -29.53470781 eV

  energy without entropy =      -29.53437372  energy(sigma->0) =      -29.53454077


--------------------------------------------------------------------------------------------------------




--------------------------------------- Iteration      1(   9)  ---------------------------------------


    POTLOK:  cpu time    0.0072: real time    0.0072
    SETDIJ:  cpu time    0.0024: real time    0.0024
     EDDAV:  cpu time    0.6161: real time    0.6161
       DOS:  cpu time    0.0014: real time    0.0014
    CHARGE:  cpu time    0.0233: real time    0.0260
    MIXING:  cpu time    0.0004: real time    0.0004
    --------------------------------------------
      LOOP:  cpu time    0.6509: real time    0.6536

 eigenvalue-minimisations  :  3295
 total energy-change (2. order) :-0.1833422E+00  (-0.4632771E+00)
 number of electron      41.9999995 magnetization 
 augmentation part       13.9501277 magnetization 

 Broyden mixing:
  rms(total) = 0.63108E+00    rms(broyden)= 0.63102E+00
  rms(prec ) = 0.83061E+00
  weight for this iteration     100.00

 eigenvalues of (default mixing * dielectric matrix)
  average eigenvalue GAMMA=   0.8493
  1.2982  1.2982  0.4005  0.4005

 Free energy of the ion-electron system (eV)
  ---------------------------------------------------
  alpha Z        PSCENC =       214.95268659
  Ewald energy   TEWEN  =     -2647.29145885
  -Hartree energ DENC   =      -724.87947949
  -exchange      EXHF   =         0.00000000
  -V(xc)+E(xc)   XCENC  =       105.06921216
  PAW double counting   =      3128.43768394    -3137.47414893
  entropy T*S    EENTRO =        -0.00106876
  eigenvalues    EBANDS =      -311.65127574
  atomic energy  EATOM  =      3343.11979913
  Solvation  Ediel_sol  =         0.00000000
  ---------------------------------------------------
  free energy    TOTEN  =       -29.71804997 eV

  energy without entropy =      -29.71698121  energy(sigma->0) =      -29.71751559


--------------------------------------------------------------------------------------------------------




--------------------------------------- Iteration      1(  10)  ---------------------------------------


    POTLOK:  cpu time    0.0072: real time    0.0072
    SETDIJ:  cpu time    0.0024: real time    0.0024
     EDDAV:  cpu time    0.6779: real time    0.6780
       DOS:  cpu time    0.0014: real time    0.0014
    CHARGE:  cpu time    0.0228: real time    0.0228
    MIXING:  cpu time    0.0005: real time    0.0005
    --------------------------------------------
      LOOP:  cpu time    0.7121: real time    0.7122

 eigenvalue-minimisations  :  3725
 total energy-change (2. order) : 0.5057896E-01  (-0.1005311E+00)
 number of electron      41.9999997 magnetization 
 augmentation part       13.3474117 magnetization 

 Broyden mixing:
  rms(total) = 0.33666E+00    rms(broyden)= 0.33640E+00
  rms(prec ) = 0.36619E+00
  weight for this iteration     100.00

 eigenvalues of (default mixing * dielectric matrix)
  average eigenvalue GAMMA=   0.8456
  1.6966  1.0730  0.3988  0.3988  0.6607

 Free energy of the ion-electron system (eV)
  ---------------------------------------------------
  alpha Z        PSCENC =       214.95268659
  Ewald energy   TEWEN  =     -2647.29145885
  -Hartree energ DENC   =      -725.40139623
  -exchange      EXHF   =         0.00000000
  -V(xc)+E(xc)   XCENC  =       105.10905942
  PAW double counting   =      3176.72338431    -3186.27297919
  entropy T*S    EENTRO =        -0.00088199
  eigenvalues    EBANDS =      -310.60568418
  atomic energy  EATOM  =      3343.11979913
  Solvation  Ediel_sol  =         0.00000000
  ---------------------------------------------------
  free energy    TOTEN  =       -29.66747101 eV

  energy without entropy =      -29.66658902  energy(sigma->0) =      -29.66703001


--------------------------------------------------------------------------------------------------------




--------------------------------------- Iteration      1(  11)  ---------------------------------------


    POTLOK:  cpu time    0.0072: real time    0.0072
    SETDIJ:  cpu time    0.0024: real time    0.0024
     EDDAV:  cpu time    0.6403: real time    0.6403
       DOS:  cpu time    0.0014: real time    0.0014
    CHARGE:  cpu time    0.0234: real time    0.0234
    MIXING:  cpu time    0.0005: real time    0.0006
    --------------------------------------------
      LOOP:  cpu time    0.6751: real time    0.6751

 eigenvalue-minimisations  :  3510
 total energy-change (2. order) : 0.8189696E-02  (-0.1245606E-01)
 number of electron      41.9999997 magnetization 
 augmentation part       13.6300061 magnetization 

 Broyden mixing:
  rms(total) = 0.30009E+00    rms(broyden)= 0.30000E+00
  rms(prec ) = 0.37388E+00
  weight for this iteration     100.00

 eigenvalues of (default mixing * dielectric matrix)
  average eigenvalue GAMMA=   0.9816
  1.8148  1.8148  0.4005  0.4005  0.7294  0.7294

 Free energy of the ion-electron system (eV)
  ---------------------------------------------------
  alpha Z        PSCENC =       214.95268659
  Ewald energy   TEWEN  =     -2647.29145885
  -Hartree energ DENC   =      -724.04145610
  -exchange      EXHF   =         0.00000000
  -V(xc)+E(xc)   XCENC  =       105.07835938
  PAW double counting   =      3215.69440706    -3225.81717799
  entropy T*S    EENTRO =        -0.00104536
  eigenvalues    EBANDS =      -311.35339517
  atomic energy  EATOM  =      3343.11979913
  Solvation  Ediel_sol  =         0.00000000
  ---------------------------------------------------
  free energy    TOTEN  =       -29.65928131 eV

  energy without entropy =      -29.65823595  energy(sigma->0) =      -29.65875863


--------------------------------------------------------------------------------------------------------




--------------------------------------- Iteration      1(  12)  ---------------------------------------


    POTLOK:  cpu time    0.0073: real time    0.0073
    SETDIJ:  cpu time    0.0024: real time    0.0024
     EDDAV:  cpu time    0.6327: real time    0.6327
       DOS:  cpu time    0.0014: real time    0.0014
    CHARGE:  cpu time    0.0229: real time    0.0229
    MIXING:  cpu time    0.0005: real time    0.0005
    --------------------------------------------
      LOOP:  cpu time    0.6672: real time    0.6672

 eigenvalue-minimisations  :  3485
 total energy-change (2. order) : 0.1485959E-01  (-0.8198208E-02)
 number of electron      41.9999997 magnetization 
 augmentation part       13.3805055 magnetization 

 Broyden mixing:
  rms(total) = 0.15828E+00    rms(broyden)= 0.15825E+00
  rms(prec ) = 0.17639E+00
  weight for this iteration     100.00

 eigenvalues of (default mixing * dielectric matrix)
  average eigenvalue GAMMA=   1.0276
  2.1334  1.6090  1.0484  1.0484  0.4006  0.4006  0.5528

 Free energy of the ion-electron system (eV)
  ---------------------------------------------------
  alpha Z        PSCENC =       214.95268659
  Ewald energy   TEWEN  =     -2647.29145885
  -Hartree energ DENC   =      -725.41645449
  -exchange      EXHF   =         0.00000000
  -V(xc)+E(xc)   XCENC  =       105.14482935
  PAW double counting   =      3224.05816591    -3233.92786903
  entropy T*S    EENTRO =        -0.00070487
  eigenvalues    EBANDS =      -310.28341545
  atomic energy  EATOM  =      3343.11979913
  Solvation  Ediel_sol  =         0.00000000
  ---------------------------------------------------
  free energy    TOTEN  =       -29.64442172 eV

  energy without entropy =      -29.64371685  energy(sigma->0) =      -29.64406929


--------------------------------------------------------------------------------------------------------




--------------------------------------- Iteration      1(  13)  ---------------------------------------


    POTLOK:  cpu time    0.0072: real time    0.0072
    SETDIJ:  cpu time    0.0024: real time    0.0024
     EDDAV:  cpu time    0.5824: real time    0.5827
       DOS:  cpu time    0.0014: real time    0.0014
    CHARGE:  cpu time    0.0232: real time    0.0232
    MIXING:  cpu time    0.0006: real time    0.0005
    --------------------------------------------
      LOOP:  cpu time    0.6172: real time    0.6174

 eigenvalue-minimisations  :  3120
 total energy-change (2. order) : 0.9025803E-03  (-0.2129302E-02)
 number of electron      41.9999997 magnetization 
 augmentation part       13.5416930 magnetization 

 Broyden mixing:
  rms(total) = 0.12891E+00    rms(broyden)= 0.12886E+00
  rms(prec ) = 0.18433E+00
  weight for this iteration     100.00

 eigenvalues of (default mixing * dielectric matrix)
  average eigenvalue GAMMA=   0.9866
  1.9401  1.9401  0.9896  0.9896  0.4005  0.4005  0.7091  0.5231

 Free energy of the ion-electron system (eV)
  ---------------------------------------------------
  alpha Z        PSCENC =       214.95268659
  Ewald energy   TEWEN  =     -2647.29145885
  -Hartree energ DENC   =      -725.40722724
  -exchange      EXHF   =         0.00000000
  -V(xc)+E(xc)   XCENC  =       105.16181115
  PAW double counting   =      3239.41050679    -3249.44129458
  entropy T*S    EENTRO =        -0.00094495
  eigenvalues    EBANDS =      -310.14739717
  atomic energy  EATOM  =      3343.11979913
  Solvation  Ediel_sol  =         0.00000000
  ---------------------------------------------------
  free energy    TOTEN  =       -29.64351914 eV

  energy without entropy =      -29.64257419  energy(sigma->0) =      -29.64304667


--------------------------------------------------------------------------------------------------------




--------------------------------------- Iteration      1(  14)  ---------------------------------------


    POTLOK:  cpu time    0.0072: real time    0.0072
    SETDIJ:  cpu time    0.0024: real time    0.0024
     EDDAV:  cpu time    0.6238: real time    0.6238
       DOS:  cpu time    0.0013: real time    0.0013
    CHARGE:  cpu time    0.0232: real time    0.0232
    MIXING:  cpu time    0.0006: real time    0.0006
    --------------------------------------------
      LOOP:  cpu time    0.6586: real time    0.6586

 eigenvalue-minimisations  :  3395
 total energy-change (2. order) : 0.3894168E-02  (-0.6897589E-03)
 number of electron      41.9999997 magnetization 
 augmentation part       13.4816182 magnetization 

 Broyden mixing:
  rms(total) = 0.88595E-01    rms(broyden)= 0.88570E-01
  rms(prec ) = 0.11173E+00
  weight for this iteration     100.00

 eigenvalues of (default mixing * dielectric matrix)
  average eigenvalue GAMMA=   1.0590
  2.0040  2.0040  1.2059  1.2059  0.4006  0.4006  0.9036  0.9036  0.5024

 Free energy of the ion-electron system (eV)
  ---------------------------------------------------
  alpha Z        PSCENC =       214.95268659
  Ewald energy   TEWEN  =     -2647.29145885
  -Hartree energ DENC   =      -725.65603068
  -exchange      EXHF   =         0.00000000
  -V(xc)+E(xc)   XCENC  =       105.16579804
  PAW double counting   =      3232.92546870    -3242.81840714
  entropy T*S    EENTRO =        -0.00071876
  eigenvalues    EBANDS =      -310.03676199
  atomic energy  EATOM  =      3343.11979913
  Solvation  Ediel_sol  =         0.00000000
  ---------------------------------------------------
  free energy    TOTEN  =       -29.63962497 eV

  energy without entropy =      -29.63890621  energy(sigma->0) =      -29.63926559


--------------------------------------------------------------------------------------------------------




--------------------------------------- Iteration      1(  15)  ---------------------------------------


    POTLOK:  cpu time    0.0077: real time    0.0077
    SETDIJ:  cpu time    0.0024: real time    0.0024
     EDDAV:  cpu time    0.6241: real time    0.6241
       DOS:  cpu time    0.0014: real time    0.0014
    CHARGE:  cpu time    0.0230: real time    0.0230
    MIXING:  cpu time    0.0006: real time    0.0006
    --------------------------------------------
      LOOP:  cpu time    0.6592: real time    0.6593

 eigenvalue-minimisations  :  3400
 total energy-change (2. order) : 0.8449371E-03  (-0.2901896E-03)
 number of electron      41.9999997 magnetization 
 augmentation part       13.4249529 magnetization 

 Broyden mixing:
  rms(total) = 0.49753E-01    rms(broyden)= 0.49732E-01
  rms(prec ) = 0.53638E-01
  weight for this iteration     100.00

 eigenvalues of (default mixing * dielectric matrix)
  average eigenvalue GAMMA=   1.1809
  2.6499  2.6499  1.6776  0.4006  0.4006  0.9288  0.9288  0.8236  0.8236  0.5259

 Free energy of the ion-electron system (eV)
  ---------------------------------------------------
  alpha Z        PSCENC =       214.95268659
  Ewald energy   TEWEN  =     -2647.29145885
  -Hartree energ DENC   =      -725.84007310
  -exchange      EXHF   =         0.00000000
  -V(xc)+E(xc)   XCENC  =       105.17013236
  PAW double counting   =      3231.43664720    -3241.22801157
  entropy T*S    EENTRO =        -0.00114993
  eigenvalues    EBANDS =      -309.95735185
  atomic energy  EATOM  =      3343.11979913
  Solvation  Ediel_sol  =         0.00000000
  ---------------------------------------------------
  free energy    TOTEN  =       -29.63878004 eV

  energy without entropy =      -29.63763011  energy(sigma->0) =      -29.63820507


--------------------------------------------------------------------------------------------------------




--------------------------------------- Iteration      1(  16)  ---------------------------------------


    POTLOK:  cpu time    0.0073: real time    0.0073
    SETDIJ:  cpu time    0.0024: real time    0.0024
     EDDAV:  cpu time    0.6316: real time    0.6316
       DOS:  cpu time    0.0014: real time    0.0014
    CHARGE:  cpu time    0.0233: real time    0.0233
    MIXING:  cpu time    0.0007: real time    0.0007
    --------------------------------------------
      LOOP:  cpu time    0.6666: real time    0.6666

 eigenvalue-minimisations  :  3445
 total energy-change (2. order) : 0.4356341E-03  (-0.8739475E-04)
 number of electron      41.9999997 magnetization 
 augmentation part       13.4201851 magnetization 

 Broyden mixing:
  rms(total) = 0.15238E-01    rms(broyden)= 0.15204E-01
  rms(prec ) = 0.17498E-01
  weight for this iteration     100.00

 eigenvalues of (default mixing * dielectric matrix)
  average eigenvalue GAMMA=   1.1306
  2.5682  2.5682  1.8351  0.4006  0.4006  0.7447  0.7447  0.9272  0.9272  0.8136
  0.5067

 Free energy of the ion-electron system (eV)
  ---------------------------------------------------
  alpha Z        PSCENC =       214.95268659
  Ewald energy   TEWEN  =     -2647.29145885
  -Hartree energ DENC   =      -726.08127619
  -exchange      EXHF   =         0.00000000
  -V(xc)+E(xc)   XCENC  =       105.18184361
  PAW double counting   =      3231.42596367    -3241.19640515
  entropy T*S    EENTRO =        -0.00113553
  eigenvalues    EBANDS =      -309.74836166
  atomic energy  EATOM  =      3343.11979913
  Solvation  Ediel_sol  =         0.00000000
  ---------------------------------------------------
  free energy    TOTEN  =       -29.63834440 eV

  energy without entropy =      -29.63720887  energy(sigma->0) =      -29.63777664


--------------------------------------------------------------------------------------------------------




--------------------------------------- Iteration      1(  17)  ---------------------------------------


    POTLOK:  cpu time    0.0072: real time    0.0072
    SETDIJ:  cpu time    0.0024: real time    0.0024
     EDDAV:  cpu time    0.6505: real time    0.6505
       DOS:  cpu time    0.0013: real time    0.0013
    CHARGE:  cpu time    0.0231: real time    0.0307
    MIXING:  cpu time    0.0007: real time    0.0007
    --------------------------------------------
      LOOP:  cpu time    0.6853: real time    0.6930

 eigenvalue-minimisations  :  3515
 total energy-change (2. order) : 0.7860773E-04  (-0.1681853E-04)
 number of electron      41.9999997 magnetization 
 augmentation part       13.4164690 magnetization 

 Broyden mixing:
  rms(total) = 0.10456E-01    rms(broyden)= 0.10455E-01
  rms(prec ) = 0.12568E-01
  weight for this iteration     100.00

 eigenvalues of (default mixing * dielectric matrix)
  average eigenvalue GAMMA=   1.1565
  3.0703  2.5325  1.6138  0.4006  0.4006  0.8792  0.8792  0.9755  0.9755  0.8135
  0.8135  0.5231

 Free energy of the ion-electron system (eV)
  ---------------------------------------------------
  alpha Z        PSCENC =       214.95268659
  Ewald energy   TEWEN  =     -2647.29145885
  -Hartree energ DENC   =      -726.11610761
  -exchange      EXHF   =         0.00000000
  -V(xc)+E(xc)   XCENC  =       105.18364847
  PAW double counting   =      3231.35524880    -3241.14740582
  entropy T*S    EENTRO =        -0.00112060
  eigenvalues    EBANDS =      -309.69355590
  atomic energy  EATOM  =      3343.11979913
  Solvation  Ediel_sol  =         0.00000000
  ---------------------------------------------------
  free energy    TOTEN  =       -29.63826579 eV

  energy without entropy =      -29.63714520  energy(sigma->0) =      -29.63770550


--------------------------------------------------------------------------------------------------------




--------------------------------------- Iteration      1(  18)  ---------------------------------------


    POTLOK:  cpu time    0.0072: real time    0.0072
    SETDIJ:  cpu time    0.0024: real time    0.0024
     EDDAV:  cpu time    0.5165: real time    0.5166
       DOS:  cpu time    0.0014: real time    0.0014
    CHARGE:  cpu time    0.0231: real time    0.0231
    MIXING:  cpu time    0.0008: real time    0.0008
    --------------------------------------------
      LOOP:  cpu time    0.5514: real time    0.5515

 eigenvalue-minimisations  :  2560
 total energy-change (2. order) : 0.2467419E-04  (-0.5031833E-05)
 number of electron      41.9999997 magnetization 
 augmentation part       13.4152377 magnetization 

 Broyden mixing:
  rms(total) = 0.47053E-02    rms(broyden)= 0.46952E-02
  rms(prec ) = 0.73700E-02
  weight for this iteration     100.00

 eigenvalues of (default mixing * dielectric matrix)
  average eigenvalue GAMMA=   1.2156
  2.9449  2.3305  2.1572  0.4006  0.4006  1.4268  0.9402  0.9402  1.0429  1.0001
  1.0001  0.5178  0.7013

 Free energy of the ion-electron system (eV)
  ---------------------------------------------------
  alpha Z        PSCENC =       214.95268659
  Ewald energy   TEWEN  =     -2647.29145885
  -Hartree energ DENC   =      -726.19227005
  -exchange      EXHF   =         0.00000000
  -V(xc)+E(xc)   XCENC  =       105.18680122
  PAW double counting   =      3230.62795254    -3240.41032641
  entropy T*S    EENTRO =        -0.00110240
  eigenvalues    EBANDS =      -309.63032288
  atomic energy  EATOM  =      3343.11979913
  Solvation  Ediel_sol  =         0.00000000
  ---------------------------------------------------
  free energy    TOTEN  =       -29.63824112 eV

  energy without entropy =      -29.63713872  energy(sigma->0) =      -29.63768992


--------------------------------------------------------------------------------------------------------




--------------------------------------- Iteration      1(  19)  ---------------------------------------


    POTLOK:  cpu time    0.0072: real time    0.0072
    SETDIJ:  cpu time    0.0024: real time    0.0024
     EDDAV:  cpu time    0.4683: real time    0.4683
       DOS:  cpu time    0.0014: real time    0.0014
    CHARGE:  cpu time    0.0232: real time    0.0232
    MIXING:  cpu time    0.0008: real time    0.0008
    --------------------------------------------
      LOOP:  cpu time    0.5033: real time    0.5034

 eigenvalue-minimisations  :  2265
 total energy-change (2. order) : 0.1450191E-04  (-0.2498151E-05)
 number of electron      41.9999997 magnetization 
 augmentation part       13.4190534 magnetization 

 Broyden mixing:
  rms(total) = 0.11877E-02    rms(broyden)= 0.11752E-02
  rms(prec ) = 0.12477E-02
  weight for this iteration     100.00

 eigenvalues of (default mixing * dielectric matrix)
  average eigenvalue GAMMA=   1.2380
  3.0450  3.0450  2.1054  1.5575  0.4006  0.4006  0.9420  0.9420  0.9933  0.9933
  0.8748  0.8748  0.5183  0.6395

 Free energy of the ion-electron system (eV)
  ---------------------------------------------------
  alpha Z        PSCENC =       214.95268659
  Ewald energy   TEWEN  =     -2647.29145885
  -Hartree energ DENC   =      -726.20208660
  -exchange      EXHF   =         0.00000000
  -V(xc)+E(xc)   XCENC  =       105.18751358
  PAW double counting   =      3230.63648888    -3240.43234168
  entropy T*S    EENTRO =        -0.00105139
  eigenvalues    EBANDS =      -309.60777628
  atomic energy  EATOM  =      3343.11979913
  Solvation  Ediel_sol  =         0.00000000
  ---------------------------------------------------
  free energy    TOTEN  =       -29.63822662 eV

  energy without entropy =      -29.63717523  energy(sigma->0) =      -29.63770092


--------------------------------------------------------------------------------------------------------




--------------------------------------- Iteration      1(  20)  ---------------------------------------


    POTLOK:  cpu time    0.0072: real time    0.0072
    SETDIJ:  cpu time    0.0024: real time    0.0024
     EDDAV:  cpu time    0.3595: real time    0.3595
       DOS:  cpu time    0.0013: real time    0.0013
    --------------------------------------------
      LOOP:  cpu time    0.3704: real time    0.3704

 eigenvalue-minimisations  :  1295
 total energy-change (2. order) :-0.2980833E-06  (-0.2140195E-06)
 number of electron      41.9999997 magnetization 
 augmentation part       13.4190534 magnetization 

 Free energy of the ion-electron system (eV)
  ---------------------------------------------------
  alpha Z        PSCENC =       214.95268659
  Ewald energy   TEWEN  =     -2647.29145885
  -Hartree energ DENC   =      -726.20130291
  -exchange      EXHF   =         0.00000000
  -V(xc)+E(xc)   XCENC  =       105.18729291
  PAW double counting   =      3230.46664367    -3240.26232335
  entropy T*S    EENTRO =        -0.00104921
  eigenvalues    EBANDS =      -309.60851488
  atomic energy  EATOM  =      3343.11979913
  Solvation  Ediel_sol  =         0.00000000
  ---------------------------------------------------
  free energy    TOTEN  =       -29.63822692 eV

  energy without entropy =      -29.63717771  energy(sigma->0) =      -29.63770231


--------------------------------------------------------------------------------------------------------




 average (electrostatic) potential at core
  the test charge radii are     1.1137  1.0103  0.7672
  (the norm of the test charge is              1.0000)
       1 -44.4329       2 -44.4329       3 -45.1869       4 -45.1869       5 -28.1685
       6 -28.1685
 
 
 
 E-fermi :   3.4037     XC(G=0): -10.5800     alpha+bet :-12.2421


 k-point     1 :       0.0000    0.0000    0.0000
  band No.  band energies     occupation 
      1     -35.6945      2.00000
      2     -35.6821      2.00000
      3     -16.9091      2.00000
      4     -16.7343      2.00000
      5     -16.7152      2.00000
      6     -16.7152      2.00000
      7     -16.7027      2.00000
      8     -16.7027      2.00000
      9      -4.5991      2.00000
     10      -2.8115      2.00000
     11      -0.4952      2.00000
     12       1.1930      2.00000
     13       1.6814      2.00000
     14       1.7820      2.00000
     15       1.7820      2.00000
     16       2.3762      2.00000
     17       2.8259      2.00000
     18       2.8827      2.00000
     19       2.8827      2.00000
     20       3.4639      0.00000
     21       3.5685      0.00000
     22       4.3614      0.00000
     23       5.2740      0.00000
     24       5.2740      0.00000
     25       6.2036      0.00000

 k-point     2 :       0.1250    0.0000    0.0000
  band No.  band energies     occupation 
      1     -35.6913      2.00000
      2     -35.6792      2.00000
      3     -16.9028      2.00000
      4     -16.7611      2.00000
      5     -16.7449      2.00000
      6     -16.7307      2.00000
      7     -16.7093      2.00000
      8     -16.6964      2.00000
      9      -4.4290      2.00000
     10      -2.6438      2.00000
     11      -0.4743      2.00000
     12       1.2403      2.00000
     13       1.5974      2.00000
     14       1.6971      2.00000
     15       1.7603      2.00000
     16       2.3535      2.00000
     17       2.8521      2.00000
     18       2.8567      2.00000
     19       2.8895      2.00000
     20       3.4362      0.00000
     21       3.4963      0.00000
     22       4.3117      0.00000
     23       4.6853      0.00000
     24       4.9187      0.00000
     25       6.2535      0.00000

 k-point     3 :       0.2500    0.0000    0.0000
  band No.  band energies     occupation 
      1     -35.6837      2.00000
      2     -35.6719      2.00000
      3     -16.8875      2.00000
      4     -16.8698      2.00000
      5     -16.8449      2.00000
      6     -16.7222      2.00000
      7     -16.6951      2.00000
      8     -16.6812      2.00000
      9      -3.9736      2.00000
     10      -2.1828      2.00000
     11      -0.4328      2.00000
     12       1.1139      2.00000
     13       1.2257      2.00000
     14       1.4947      2.00000
     15       1.9367      2.00000
     16       2.2469      2.00000
     17       2.8100      2.00000
     18       2.8964      2.00000
     19       3.0121      2.00000
     20       3.3385      2.00000
     21       3.3742      1.99997
     22       4.0027      0.00000
     23       4.2245      0.00000
     24       4.2797      0.00000
     25       6.0850      0.00000

 k-point     4 :       0.3750    0.0000    0.0000
  band No.  band energies     occupation 
      1     -35.6761      2.00000
      2     -35.6646      2.00000
      3     -16.9756      2.00000
      4     -16.9425      2.00000
      5     -16.8721      2.00000
      6     -16.7137      2.00000
      7     -16.6808      2.00000
      8     -16.6659      2.00000
      9      -3.4146      2.00000
     10      -1.5549      2.00000
     11      -0.4026      2.00000
     12       0.4722      2.00000
     13       0.8083      2.00000
     14       1.2964      2.00000
     15       2.0618      2.00000
     16       2.2863      2.00000
     17       2.7572      2.00000
     18       2.8781      2.00000
     19       3.1980      2.00000
     20       3.3252      2.00000
     21       3.4810      0.00000
     22       3.8092      0.00000
     23       3.8244      0.00000
     24       4.1211      0.00000
     25       5.5782      0.00000

 k-point     5 :       0.5000    0.0000    0.0000
  band No.  band energies     occupation 
      1     -35.6729      2.00000
      2     -35.6617      2.00000
      3     -17.0186      2.00000
      4     -16.9823      2.00000
      5     -16.8657      2.00000
      6     -16.7102      2.00000
      7     -16.6749      2.00000
      8     -16.6595      2.00000
      9      -3.1271      2.00000
     10      -1.1347      2.00000
     11      -0.3894      2.00000
     12       0.0431      2.00000
     13       0.4959      2.00000
     14       1.2156      2.00000
     15       2.0929      2.00000
     16       2.3746      2.00000
     17       2.7253      2.00000
     18       2.8573      2.00000
     19       3.1440      2.00000
     20       3.3122      2.00000
     21       3.6479      0.00000
     22       3.8302      0.00000
     23       4.0083      0.00000
     24       4.0993      0.00000
     25       4.8726      0.00000

 k-point     6 :       0.1250    0.1250    0.0000
  band No.  band energies     occupation 
      1     -35.6882      2.00000
[...]
 augmentation part       15.5458819 magnetization 

 Broyden mixing:
  rms(total) = 0.16695E+01    rms(broyden)= 0.16693E+01
  rms(prec ) = 0.25763E+01
  weight for this iteration     100.00

 Free energy of the ion-electron system (eV)
  ---------------------------------------------------
  alpha Z        PSCENC =       195.82382510
  Ewald energy   TEWEN  =     -2570.07510467
  -Hartree energ DENC   =      -723.78597859
  -exchange      EXHF   =         0.00000000
  -V(xc)+E(xc)   XCENC  =       101.82279382
  PAW double counting   =      3170.03122409    -3179.88106655
  entropy T*S    EENTRO =        -0.00008815
  eigenvalues    EBANDS =      -369.37247861
  atomic energy  EATOM  =      3343.11979913
  Solvation  Ediel_sol  =         0.00000000
  ---------------------------------------------------
  free energy    TOTEN  =       -32.31707444 eV

  energy without entropy =      -32.31698628  energy(sigma->0) =      -32.31703036


--------------------------------------------------------------------------------------------------------




--------------------------------------- Iteration      3(   2)  ---------------------------------------


    POTLOK:  cpu time    0.0072: real time    0.0072
    SETDIJ:  cpu time    0.0024: real time    0.0024
     EDDAV:  cpu time    0.6959: real time    0.6959
       DOS:  cpu time    0.0014: real time    0.0014
    CHARGE:  cpu time    0.0229: real time    0.0444
    MIXING:  cpu time    0.0003: real time    0.0003
    --------------------------------------------
      LOOP:  cpu time    0.7301: real time    0.7516

 eigenvalue-minimisations  :  3820
 total energy-change (2. order) :-0.2708021E+02  (-0.2655378E+02)
 number of electron      42.0000000 magnetization 
 augmentation part        8.0480596 magnetization 

 Broyden mixing:
  rms(total) = 0.48713E+01    rms(broyden)= 0.48709E+01
  rms(prec ) = 0.81016E+01
  weight for this iteration     100.00

 eigenvalues of (default mixing * dielectric matrix)
  average eigenvalue GAMMA=   0.2462
  0.2462

 Free energy of the ion-electron system (eV)
  ---------------------------------------------------
  alpha Z        PSCENC =       195.82382510
  Ewald energy   TEWEN  =     -2570.07510467
  -Hartree energ DENC   =      -789.15302649
  -exchange      EXHF   =         0.00000000
  -V(xc)+E(xc)   XCENC  =       104.79873084
  PAW double counting   =      3242.95233822    -3263.13929058
  entropy T*S    EENTRO =        -0.00031082
  eigenvalues    EBANDS =      -323.72424658
  atomic energy  EATOM  =      3343.11979913
  Solvation  Ediel_sol  =         0.00000000
  ---------------------------------------------------
  free energy    TOTEN  =       -59.39728586 eV

  energy without entropy =      -59.39697504  energy(sigma->0) =      -59.39713045


--------------------------------------------------------------------------------------------------------




--------------------------------------- Iteration      3(   3)  ---------------------------------------


    POTLOK:  cpu time    0.0072: real time    0.0072
    SETDIJ:  cpu time    0.0023: real time    0.0023
     EDDAV:  cpu time    0.6225: real time    0.6226
       DOS:  cpu time    0.0013: real time    0.0013
    CHARGE:  cpu time    0.0232: real time    0.0232
    MIXING:  cpu time    0.0004: real time    0.0004
    --------------------------------------------
      LOOP:  cpu time    0.6571: real time    0.6571

 eigenvalue-minimisations  :  3370
 total energy-change (2. order) : 0.2928954E+02  (-0.1225672E+02)
 number of electron      42.0000012 magnetization 
 augmentation part       12.8935681 magnetization 

 Broyden mixing:
  rms(total) = 0.49731E+00    rms(broyden)= 0.49429E+00
  rms(prec ) = 0.75683E+00
  weight for this iteration     100.00

 eigenvalues of (default mixing * dielectric matrix)
  average eigenvalue GAMMA=   0.4481
  0.6420  0.2542

 Free energy of the ion-electron system (eV)
  ---------------------------------------------------
  alpha Z        PSCENC =       195.82382510
  Ewald energy   TEWEN  =     -2570.07510467
  -Hartree energ DENC   =      -753.12810240
  -exchange      EXHF   =         0.00000000
  -V(xc)+E(xc)   XCENC  =       103.36057783
  PAW double counting   =      3173.08196859    -3185.06834433
  entropy T*S    EENTRO =        -0.00032026
  eigenvalues    EBANDS =      -337.22204641
  atomic energy  EATOM  =      3343.11979913
  Solvation  Ediel_sol  =         0.00000000
  ---------------------------------------------------
  free energy    TOTEN  =       -30.10774742 eV

  energy without entropy =      -30.10742717  energy(sigma->0) =      -30.10758730


--------------------------------------------------------------------------------------------------------




--------------------------------------- Iteration      3(   4)  ---------------------------------------


    POTLOK:  cpu time    0.0072: real time    0.0072
    SETDIJ:  cpu time    0.0024: real time    0.0024
     EDDAV:  cpu time    0.5774: real time    0.5774
       DOS:  cpu time    0.0014: real time    0.0014
    CHARGE:  cpu time    0.0231: real time    0.0231
    MIXING:  cpu time    0.0004: real time    0.0004
    --------------------------------------------
      LOOP:  cpu time    0.6119: real time    0.6119

 eigenvalue-minimisations  :  3075
 total energy-change (2. order) :-0.2208188E-01  (-0.3367574E+00)
 number of electron      42.0000015 magnetization 
 augmentation part       13.4362945 magnetization 

 Broyden mixing:
  rms(total) = 0.19373E+00    rms(broyden)= 0.19356E+00
  rms(prec ) = 0.24330E+00
  weight for this iteration     100.00

 eigenvalues of (default mixing * dielectric matrix)
  average eigenvalue GAMMA=   0.8957
  0.2592  0.7943  1.6336

 Free energy of the ion-electron system (eV)
  ---------------------------------------------------
  alpha Z        PSCENC =       195.82382510
  Ewald energy   TEWEN  =     -2570.07510467
  -Hartree energ DENC   =      -754.62631759
  -exchange      EXHF   =         0.00000000
  -V(xc)+E(xc)   XCENC  =       103.51740201
  PAW double counting   =      3150.60302802    -3161.03470737
  entropy T*S    EENTRO =        -0.00065835
  eigenvalues    EBANDS =      -337.45709558
  atomic energy  EATOM  =      3343.11979913
  Solvation  Ediel_sol  =         0.00000000
  ---------------------------------------------------
  free energy    TOTEN  =       -30.12982930 eV

  energy without entropy =      -30.12917095  energy(sigma->0) =      -30.12950012


--------------------------------------------------------------------------------------------------------




--------------------------------------- Iteration      3(   5)  ---------------------------------------


    POTLOK:  cpu time    0.0072: real time    0.0072
    SETDIJ:  cpu time    0.0023: real time    0.0023
     EDDAV:  cpu time    0.7250: real time    0.7251
       DOS:  cpu time    0.0014: real time    0.0014
    CHARGE:  cpu time    0.0229: real time    0.0229
    MIXING:  cpu time    0.0004: real time    0.0004
    --------------------------------------------
      LOOP:  cpu time    0.7593: real time    0.7594

 eigenvalue-minimisations  :  4005
 total energy-change (2. order) : 0.3058843E-01  (-0.3405796E-01)
 number of electron      42.0000014 magnetization 
 augmentation part       13.3483326 magnetization 

 Broyden mixing:
  rms(total) = 0.90372E-01    rms(broyden)= 0.90305E-01
  rms(prec ) = 0.10922E+00
  weight for this iteration     100.00

 eigenvalues of (default mixing * dielectric matrix)
  average eigenvalue GAMMA=   0.9005
  1.3541  1.3541  0.2596  0.6342

 Free energy of the ion-electron system (eV)
  ---------------------------------------------------
  alpha Z        PSCENC =       195.82382510
  Ewald energy   TEWEN  =     -2570.07510467
  -Hartree energ DENC   =      -761.00011252
  -exchange      EXHF   =         0.00000000
  -V(xc)+E(xc)   XCENC  =       103.88717402
  PAW double counting   =      3121.59614244    -3130.85521035
  entropy T*S    EENTRO =        -0.00057155
  eigenvalues    EBANDS =      -332.59518248
  atomic energy  EATOM  =      3343.11979913
  Solvation  Ediel_sol  =         0.00000000
  ---------------------------------------------------
  free energy    TOTEN  =       -30.09924087 eV

  energy without entropy =      -30.09866932  energy(sigma->0) =      -30.09895510


--------------------------------------------------------------------------------------------------------




--------------------------------------- Iteration      3(   6)  ---------------------------------------


    POTLOK:  cpu time    0.0073: real time    0.0073
    SETDIJ:  cpu time    0.0024: real time    0.0024
     EDDAV:  cpu time    0.6324: real time    0.6325
       DOS:  cpu time    0.0014: real time    0.0014
    CHARGE:  cpu time    0.0228: real time    0.0228
    MIXING:  cpu time    0.0005: real time    0.0005
    --------------------------------------------
      LOOP:  cpu time    0.6668: real time    0.6668

 eigenvalue-minimisations  :  3385
 total energy-change (2. order) :-0.7457942E-02  (-0.6991692E-02)
 number of electron      42.0000014 magnetization 
 augmentation part       13.4117806 magnetization 

 Broyden mixing:
  rms(total) = 0.57251E-01    rms(broyden)= 0.56994E-01
  rms(prec ) = 0.62953E-01
  weight for this iteration     100.00

 eigenvalues of (default mixing * dielectric matrix)
  average eigenvalue GAMMA=   0.9998
  0.2596  1.5704  0.7540  1.2075  1.2075

 Free energy of the ion-electron system (eV)
  ---------------------------------------------------
  alpha Z        PSCENC =       195.82382510
  Ewald energy   TEWEN  =     -2570.07510467
  -Hartree energ DENC   =      -760.05128081
  -exchange      EXHF   =         0.00000000
  -V(xc)+E(xc)   XCENC  =       103.84104075
  PAW double counting   =      3111.22409640    -3120.53503187
  entropy T*S    EENTRO =        -0.00083523
  eigenvalues    EBANDS =      -333.45320762
  atomic energy  EATOM  =      3343.11979913
  Solvation  Ediel_sol  =         0.00000000
  ---------------------------------------------------
  free energy    TOTEN  =       -30.10669881 eV

  energy without entropy =      -30.10586358  energy(sigma->0) =      -30.10628120


--------------------------------------------------------------------------------------------------------




--------------------------------------- Iteration      3(   7)  ---------------------------------------


    POTLOK:  cpu time    0.0072: real time    0.0072
    SETDIJ:  cpu time    0.0023: real time    0.0023
     EDDAV:  cpu time    0.6829: real time    0.6829
       DOS:  cpu time    0.0014: real time    0.0014
    CHARGE:  cpu time    0.0230: real time    0.0230
    MIXING:  cpu time    0.0005: real time    0.0005
    --------------------------------------------
      LOOP:  cpu time    0.7172: real time    0.7173

 eigenvalue-minimisations  :  3760
 total energy-change (2. order) :-0.1752179E-02  (-0.1246418E-02)
 number of electron      42.0000014 magnetization 
 augmentation part       13.4109467 magnetization 

 Broyden mixing:
  rms(total) = 0.40704E-01    rms(broyden)= 0.40697E-01
  rms(prec ) = 0.50702E-01
  weight for this iteration     100.00

 eigenvalues of (default mixing * dielectric matrix)
  average eigenvalue GAMMA=   1.1831
  2.4101  0.2596  1.6397  1.3605  0.7747  0.6543

 Free energy of the ion-electron system (eV)
  ---------------------------------------------------
  alpha Z        PSCENC =       195.82382510
  Ewald energy   TEWEN  =     -2570.07510467
  -Hartree energ DENC   =      -760.20161577
  -exchange      EXHF   =         0.00000000
  -V(xc)+E(xc)   XCENC  =       103.85837421
  PAW double counting   =      3100.53609258    -3110.01301327
  entropy T*S    EENTRO =        -0.00077737
  eigenvalues    EBANDS =      -333.15603092
  atomic energy  EATOM  =      3343.11979913
  Solvation  Ediel_sol  =         0.00000000
  ---------------------------------------------------
  free energy    TOTEN  =       -30.10845099 eV

  energy without entropy =      -30.10767361  energy(sigma->0) =      -30.10806230


--------------------------------------------------------------------------------------------------------




--------------------------------------- Iteration      3(   8)  ---------------------------------------


    POTLOK:  cpu time    0.0073: real time    0.0073
    SETDIJ:  cpu time    0.0024: real time    0.0024
     EDDAV:  cpu time    0.7334: real time    0.7335
       DOS:  cpu time    0.0014: real time    0.0014
    CHARGE:  cpu time    0.0230: real time    0.0230
    MIXING:  cpu time    0.0005: real time    0.0005
    --------------------------------------------
      LOOP:  cpu time    0.7679: real time    0.7680

 eigenvalue-minimisations  :  4060
 total energy-change (2. order) :-0.3110953E-03  (-0.3673310E-03)
 number of electron      42.0000014 magnetization 
 augmentation part       13.4409552 magnetization 

 Broyden mixing:
  rms(total) = 0.11350E-01    rms(broyden)= 0.11239E-01
  rms(prec ) = 0.15891E-01
  weight for this iteration     100.00

 eigenvalues of (default mixing * dielectric matrix)
  average eigenvalue GAMMA=   1.2445
  2.1570  2.1570  0.2596  1.6195  0.9947  0.7107  0.8129

 Free energy of the ion-electron system (eV)
  ---------------------------------------------------
  alpha Z        PSCENC =       195.82382510
  Ewald energy   TEWEN  =     -2570.07510467
  -Hartree energ DENC   =      -759.61596121
  -exchange      EXHF   =         0.00000000
  -V(xc)+E(xc)   XCENC  =       103.83769548
  PAW double counting   =      3087.63334959    -3097.41470745
  entropy T*S    EENTRO =        -0.00083584
  eigenvalues    EBANDS =      -333.41682221
  atomic energy  EATOM  =      3343.11979913
  Solvation  Ediel_sol  =         0.00000000
  ---------------------------------------------------
  free energy    TOTEN  =       -30.10876208 eV

  energy without entropy =      -30.10792625  energy(sigma->0) =      -30.10834417


--------------------------------------------------------------------------------------------------------




--------------------------------------- Iteration      3(   9)  ---------------------------------------


    POTLOK:  cpu time    0.0072: real time    0.0072
    SETDIJ:  cpu time    0.0024: real time    0.0024
     EDDAV:  cpu time    0.5660: real time    0.5663
       DOS:  cpu time    0.0014: real time    0.0014
    CHARGE:  cpu time    0.0230: real time    0.0230
    MIXING:  cpu time    0.0006: real time    0.0006
    --------------------------------------------
      LOOP:  cpu time    0.6006: real time    0.6009

 eigenvalue-minimisations  :  2985
 total energy-change (2. order) :-0.1491969E-02  (-0.1767556E-04)
 number of electron      42.0000014 magnetization 
 augmentation part       13.4518519 magnetization 

 Broyden mixing:
  rms(total) = 0.90174E-02    rms(broyden)= 0.85201E-02
  rms(prec ) = 0.96610E-02
  weight for this iteration     100.00

 eigenvalues of (default mixing * dielectric matrix)
  average eigenvalue GAMMA=   1.1978
  2.5941  1.8872  0.2596  1.5066  0.9273  0.6978  0.8549  0.8549

 Free energy of the ion-electron system (eV)
  ---------------------------------------------------
  alpha Z        PSCENC =       195.82382510
  Ewald energy   TEWEN  =     -2570.07510467
  -Hartree energ DENC   =      -759.50709550
  -exchange      EXHF   =         0.00000000
  -V(xc)+E(xc)   XCENC  =       103.83295491
  PAW double counting   =      3086.74450382    -3096.61117611
  entropy T*S    EENTRO =        -0.00099352
  eigenvalues    EBANDS =      -333.43696722
  atomic energy  EATOM  =      3343.11979913
  Solvation  Ediel_sol  =         0.00000000
  ---------------------------------------------------
  free energy    TOTEN  =       -30.11025405 eV

  energy without entropy =      -30.10926054  energy(sigma->0) =      -30.10975730


--------------------------------------------------------------------------------------------------------




--------------------------------------- Iteration      3(  10)  ---------------------------------------


    POTLOK:  cpu time    0.0072: real time    0.0072
    SETDIJ:  cpu time    0.0023: real time    0.0023
     EDDAV:  cpu time    0.5522: real time    0.5522
       DOS:  cpu time    0.0013: real time    0.0013
    CHARGE:  cpu time    0.0230: real time    0.0230
    MIXING:  cpu time    0.0006: real time    0.0006
    --------------------------------------------
      LOOP:  cpu time    0.5866: real time    0.5866

 eigenvalue-minimisations  :  2845
 total energy-change (2. order) :-0.2807240E-02  (-0.2504042E-02)
 number of electron      42.0000014 magnetization 
 augmentation part       13.4521653 magnetization 

 Broyden mixing:
  rms(total) = 0.28549E-02    rms(broyden)= 0.28518E-02
  rms(prec ) = 0.31941E-02
  weight for this iteration     100.00

 eigenvalues of (default mixing * dielectric matrix)
  average eigenvalue GAMMA=   1.1896
  2.7556  1.9120  0.2596  1.3647  1.0139  1.0139  0.9818  0.7026  0.7026

 Free energy of the ion-electron system (eV)
  ---------------------------------------------------
  alpha Z        PSCENC =       195.82382510
  Ewald energy   TEWEN  =     -2570.07510467
  -Hartree energ DENC   =      -759.44803874
  -exchange      EXHF   =         0.00000000
  -V(xc)+E(xc)   XCENC  =       103.83154364
  PAW double counting   =      3085.50699158    -3095.42697139
  entropy T*S    EENTRO =        -0.00095816
  eigenvalues    EBANDS =      -333.44414778
  atomic energy  EATOM  =      3343.11979913
  Solvation  Ediel_sol  =         0.00000000
  ---------------------------------------------------
  free energy    TOTEN  =       -30.11306129 eV

  energy without entropy =      -30.11210313  energy(sigma->0) =      -30.11258221


--------------------------------------------------------------------------------------------------------




--------------------------------------- Iteration      3(  11)  ---------------------------------------


    POTLOK:  cpu time    0.0073: real time    0.0073
    SETDIJ:  cpu time    0.0024: real time    0.0024
     EDDAV:  cpu time    0.3620: real time    0.3621
       DOS:  cpu time    0.0014: real time    0.0014
    CHARGE:  cpu time    0.0231: real time    0.0231
    MIXING:  cpu time    0.0006: real time    0.0006
    --------------------------------------------
      LOOP:  cpu time    0.3968: real time    0.3968

 eigenvalue-minimisations  :  1315
 total energy-change (2. order) :-0.1580287E-03  (-0.1481178E-03)
 number of electron      42.0000014 magnetization 
 augmentation part       13.4513772 magnetization 

 Broyden mixing:
  rms(total) = 0.29424E-02    rms(broyden)= 0.29091E-02
  rms(prec ) = 0.33509E-02
  weight for this iteration     100.00

 eigenvalues of (default mixing * dielectric matrix)
  average eigenvalue GAMMA=   1.3661
  2.9055  2.0748  2.0748  2.0961  0.2596  1.0533  0.9977  0.6990  0.7501  0.7501

 Free energy of the ion-electron system (eV)
  ---------------------------------------------------
  alpha Z        PSCENC =       195.82382510
  Ewald energy   TEWEN  =     -2570.07510467
  -Hartree energ DENC   =      -759.44599456
  -exchange      EXHF   =         0.00000000
  -V(xc)+E(xc)   XCENC  =       103.83187730
  PAW double counting   =      3085.29083940    -3095.22025339
  entropy T*S    EENTRO =        -0.00095423
  eigenvalues    EBANDS =      -333.43725340
  atomic energy  EATOM  =      3343.11979913
  Solvation  Ediel_sol  =         0.00000000
  ---------------------------------------------------
  free energy    TOTEN  =       -30.11321932 eV

  energy without entropy =      -30.11226509  energy(sigma->0) =      -30.11274221


--------------------------------------------------------------------------------------------------------




--------------------------------------- Iteration      3(  12)  ---------------------------------------


    POTLOK:  cpu time    0.0073: real time    0.0073
    SETDIJ:  cpu time    0.0023: real time    0.0023
