 vasp.5.4.4.18Apr17-6-g9f103f2a35 (build Apr 24 2023 09:55:28) complex          
  
 executed on             LinuxIFC date 2024.04.17  00:01:53
 running on   35 total cores
 distrk:  each k-point on   35 cores,    1 groups
 distr:  one band on NCORES_PER_BAND=   7 cores,    5 groups


--------------------------------------------------------------------------------------------------------


 INCAR:
 POTCAR:    PAW_PBE Ca_sv 06Sep2000               
 POTCAR:    PAW_PBE Fe 06Sep2000                  
 POTCAR:    PAW_PBE B 06Sep2000                   
 POTCAR:    PAW_PBE Ca_sv 06Sep2000               
   VRHFIN =Ca: 3s3p4s                                                           
   LEXCH  = PE                                                                  
   EATOM  =  1006.0909 eV,   73.9456 Ry                                         
                                                                                
   TITEL  = PAW_PBE Ca_sv 06Sep2000                                             
   LULTRA =        F    use ultrasoft PP ?                                      
   IUNSCR =        1    unscreen: 0-lin 1-nonlin 2-no                           
   RPACOR =    2.000    partial core radius                                     
   POMASS =   40.078; ZVAL   =   10.000    mass and valenz                      
   RCORE  =    2.300    outmost cutoff radius                                   
   RWIGS  =    2.500; RWIGS  =    1.323    wigner-seitz radius (au A)           
   ENMAX  =  266.622; ENMIN  =  199.967 eV                                      
   RCLOC  =    1.808    cutoff for local pot                                    
   LCOR   =        T    correct aug charges                                     
   LPAW   =        T    paw PP                                                  
   EAUG   =  420.852                                                            
   RMAX   =    2.359    core radius for proj-oper                               
   RAUG   =    1.300    factor for augmentation sphere                          
   RDEP   =    2.392    radius for radial grids                                 
   RDEPT  =    1.987    core radius for aug-charge                              
                                                                                
   Atomic configuration                                                         
    7 entries                                                                   
     n  l   j            E        occ.                                          
     1  0  0.50     -3949.1705   2.0000                                         
     2  0  0.50      -414.3434   2.0000                                         
     2  1  1.50      -334.7047   6.0000                                         
     3  0  0.50       -47.0896   2.0000                                         
     4  0  0.50        -3.7663   2.0000                                         
     3  1  1.50       -28.0061   6.0000                                         
     3  2  1.50        -4.0817   0.0000                                         
   Description                                                                  
     l       E           TYP  RCUT    TYP  RCUT                                 
     0    -47.0896403     23  2.300                                             
     0     -3.7663320     23  2.300                                             
     1    -28.0060855     23  2.300                                             
     1      6.8029130     23  2.300                                             
     2     -4.0817478     23  2.300                                             
     2      0.4464412     23  2.300                                             
  local pseudopotential read in
  partial core-charges read in
  partial kinetic energy density read in
  atomic valenz-charges read in
  non local Contribution for L=           0  read in
    real space projection operators read in
  non local Contribution for L=           0  read in
    real space projection operators read in
  non local Contribution for L=           1  read in
    real space projection operators read in
  non local Contribution for L=           1  read in
    real space projection operators read in
  non local Contribution for L=           2  read in
    real space projection operators read in
  non local Contribution for L=           2  read in
    real space projection operators read in
    PAW grid and wavefunctions read in
 
   number of l-projection  operators is LMAX  =           6
   number of lm-projection operators is LMMAX =          18
 
 POTCAR:    PAW_PBE Fe 06Sep2000                  
   VRHFIN =Fe:  d7 s1                                                           
   LEXCH  = PE                                                                  
   EATOM  =   594.3153 eV,   43.6809 Ry                                         
                                                                                
   TITEL  = PAW_PBE Fe 06Sep2000                                                
   LULTRA =        F    use ultrasoft PP ?                                      
   IUNSCR =        1    unscreen: 0-lin 1-nonlin 2-no                           
   RPACOR =    2.000    partial core radius                                     
   POMASS =   55.847; ZVAL   =    8.000    mass and valenz                      
   RCORE  =    2.300    outmost cutoff radius                                   
   RWIGS  =    2.460; RWIGS  =    1.302    wigner-seitz radius (au A)           
   ENMAX  =  267.882; ENMIN  =  200.911 eV                                      
   RCLOC  =    1.701    cutoff for local pot                                    
   LCOR   =        T    correct aug charges                                     
   LPAW   =        T    paw PP                                                  
   EAUG   =  511.368                                                            
   DEXC   =    0.000                                                            
   RMAX   =    2.356    core radius for proj-oper                               
   RAUG   =    1.300    factor for augmentation sphere                          
   RDEP   =    2.442    radius for radial grids                                 
   RDEPT  =    1.890    core radius for aug-charge                              
                                                                                
   Atomic configuration                                                         
    9 entries                                                                   
     n  l   j            E        occ.                                          
     1  0  0.50     -6993.8440   2.0000                                         
     2  0  0.50      -814.6047   2.0000                                         
     2  1  1.50      -693.3689   6.0000                                         
     3  0  0.50       -89.4732   2.0000                                         
     3  1  1.50       -55.6373   6.0000                                         
     3  2  2.50        -3.8151   7.0000                                         
     4  0  0.50        -4.2551   1.0000                                         
     4  1  1.50        -3.4015   0.0000                                         
     4  3  2.50        -1.3606   0.0000                                         
   Description                                                                  
     l       E           TYP  RCUT    TYP  RCUT                                 
     2     -3.8151135     23  2.300                                             
     2     -5.1756961     23  2.300                                             
     0     -4.2550963     23  2.300                                             
     0      7.2035603     23  2.300                                             
     1     -2.7211652     23  2.300                                             
     1     18.4316424     23  2.300                                             
  local pseudopotential read in
  partial core-charges read in
  partial kinetic energy density read in
  atomic valenz-charges read in
  non local Contribution for L=           2  read in
    real space projection operators read in
  non local Contribution for L=           2  read in
    real space projection operators read in
  non local Contribution for L=           0  read in
    real space projection operators read in
  non local Contribution for L=           0  read in
    real space projection operators read in
  non local Contribution for L=           1  read in
    real space projection operators read in
  non local Contribution for L=           1  read in
    real space projection operators read in
    PAW grid and wavefunctions read in
 
   number of l-projection  operators is LMAX  =           6
   number of lm-projection operators is LMMAX =          18
 
 POTCAR:    PAW_PBE B 06Sep2000                   
   VRHFIN =B: s2p1                                                              
   LEXCH  = PE                                                                  
   EATOM  =    71.1703 eV,    5.2309 Ry                                         
                                                                                
   TITEL  = PAW_PBE B 06Sep2000                                                 
   LULTRA =        F    use ultrasoft PP ?                                      
   IUNSCR =        1    unscreen: 0-lin 1-nonlin 2-no                           
   RPACOR =    1.200    partial core radius                                     
   POMASS =   10.811; ZVAL   =    3.000    mass and valenz                      
   RCORE  =    1.700    outmost cutoff radius                                   
   RWIGS  =    1.710; RWIGS  =    0.905    wigner-seitz radius (au A)           
   ENMAX  =  318.614; ENMIN  =  238.960 eV                                      
   ICORE  =        2    local potential                                         
   LCOR   =        T    correct aug charges                                     
   LPAW   =        T    paw PP                                                  
   EAUG   =  535.514                                                            
   DEXC   =    0.000                                                            
   RMAX   =    1.732    core radius for proj-oper                               
   RAUG   =    1.300    factor for augmentation sphere                          
   RDEP   =    1.757    radius for radial grids                                 
   RDEPT  =    1.436    core radius for aug-charge                              
                                                                                
   Atomic configuration                                                         
    4 entries                                                                   
     n  l   j            E        occ.                                          
     1  0  0.50      -180.5896   2.0000                                         
     2  0  0.50        -9.4431   2.0000                                         
     2  1  0.50        -3.6068   1.0000                                         
     3  2  1.50        -4.0817   0.0000                                         
   Description                                                                  
     l       E           TYP  RCUT    TYP  RCUT                                 
     0     -9.4430752     23  1.500                                             
     0      0.8675899     23  1.500                                             
     1     -3.6067955     23  1.700                                             
     1      6.1086146     23  1.700                                             
     2     -4.0817478      7  1.700                                             
  local pseudopotential read in
  partial core-charges read in
  partial kinetic energy density read in
  atomic valenz-charges read in
  non local Contribution for L=           0  read in
    real space projection operators read in
  non local Contribution for L=           0  read in
    real space projection operators read in
  non local Contribution for L=           1  read in
    real space projection operators read in
  non local Contribution for L=           1  read in
    real space projection operators read in
    PAW grid and wavefunctions read in
 
   number of l-projection  operators is LMAX  =           4
   number of lm-projection operators is LMMAX =           8
 
  PAW_PBE Ca_sv 06Sep2000               :
 energy of atom  1       EATOM=-1006.0909
 kinetic energy error for atom=    0.0058 (will be added to EATOM!!)
  PAW_PBE Fe 06Sep2000                  :
 energy of atom  2       EATOM= -594.3153
 kinetic energy error for atom=    0.0088 (will be added to EATOM!!)
  PAW_PBE B 06Sep2000                   :
 energy of atom  3       EATOM=  -71.1703
 kinetic energy error for atom=    0.0020 (will be added to EATOM!!)
 
 
 POSCAR: Ca3 Fe3 B3                              
  positions in direct lattice
  No initial velocities read in
 exchange correlation table for  LEXCH =        8
   RHO(1)=    0.500       N(1)  =     2000
   RHO(2)=  100.500       N(2)  =     4000
 


--------------------------------------------------------------------------------------------------------


 ion  position               nearest neighbor table
   1  0.409  0.487  0.532-   3 0.53   2 0.53   4 2.16   6 2.32   5 2.41   7 2.54   8 2.59   9 2.64
                             5 2.79   6 2.91   4 3.10
   2  0.487  0.532  0.409-   3 0.53   1 0.53   5 2.16   4 2.32   6 2.41   8 2.54   9 2.59   7 2.64
                             6 2.79   4 2.91   5 3.10
   3  0.532  0.409  0.487-   1 0.53   2 0.53   6 2.16   5 2.32   4 2.41   9 2.54   7 2.59   8 2.64
                             4 2.79   5 2.91   6 3.10
   4  0.069  0.448  0.448-   7 0.55   9 1.69   8 1.69   6 1.85   5 1.85   1 2.16   2 2.32   3 2.41
                             3 2.79   2 2.91   6 3.04   5 3.04   1 3.10
   5  0.448  0.448  0.069-   8 0.55   9 1.69   7 1.69   6 1.85   4 1.85   2 2.16   3 2.32   1 2.41
                             1 2.79   3 2.91   6 3.04   4 3.04   2 3.10
   6  0.448  0.069  0.448-   9 0.55   7 1.69   8 1.69   4 1.85   5 1.85   3 2.16   1 2.32   2 2.41
                             2 2.79   1 2.91   4 3.04   5 3.04   3 3.10
   7  0.096  0.380  0.380-   4 0.55   9 1.39   8 1.39   6 1.69   5 1.69   1 2.54   3 2.59   2 2.64

   8  0.380  0.380  0.096-   5 0.55   9 1.39   7 1.39   6 1.69   4 1.69   2 2.54   1 2.59   3 2.64

   9  0.380  0.096  0.380-   6 0.55   7 1.39   8 1.39   4 1.69   5 1.69   3 2.54   2 2.59   1 2.64

 

 ----------------------------------------------------------------------------- 
|                                                                             |
|           W    W    AA    RRRRR   N    N  II  N    N   GGGG   !!!           |
|           W    W   A  A   R    R  NN   N  II  NN   N  G    G  !!!           |
|           W    W  A    A  R    R  N N  N  II  N N  N  G       !!!           |
|           W WW W  AAAAAA  RRRRR   N  N N  II  N  N N  G  GGG   !            |
|           WW  WW  A    A  R   R   N   NN  II  N   NN  G    G                |
|           W    W  A    A  R    R  N    N  II  N    N   GGGG   !!!           |
|                                                                             |
|      The distance between some ions is very small                           |
|      please check the nearest neigbor list in the OUTCAR file               |
|          I HOPE YOU KNOW, WHAT YOU ARE  DOING                               |
|                                                                             |
 ----------------------------------------------------------------------------- 

  LATTYP: Found a trigonal (rhomboedric) cell.
 ALAT       =     5.1885997954
 COS(alpha) =     0.5559881979
  
  Lattice vectors:
  
 A1 = (  -1.5410260000,  -4.0279940000,  -2.8848000000)
 A2 = (  -4.3127140000,   0.0000000000,  -2.8848000000)
 A3 = (   0.0000000000,   0.0000000000,  -5.1886100000)


Analysis of symmetry for initial positions (statically):
=====================================================================
 Subroutine PRICEL returns:
 Original cell was already a primitive cell.
 

 Routine SETGRP: Setting up the symmetry group for a 
 trigonal (rhombohedral) supercell.


 Subroutine GETGRP returns: Found  3 space group operations
 (whereof  3 operations were pure point group operations)
 out of a pool of 12 trial point group operations.


The static configuration has the point symmetry C_3 .


Analysis of symmetry for dynamics (positions and initial velocities):
=====================================================================
 Subroutine PRICEL returns:
 Original cell was already a primitive cell.
 

 Routine SETGRP: Setting up the symmetry group for a 
 trigonal (rhombohedral) supercell.


 Subroutine GETGRP returns: Found  3 space group operations
 (whereof  3 operations were pure point group operations)
 out of a pool of 12 trial point group operations.


The dynamic configuration has the point symmetry C_3 .


 Subroutine INISYM returns: Found  3 space group operations
 (whereof  3 operations are pure point group operations),
 and found     1 'primitive' translations

 
 
 KPOINTS: Automatic mesh                          

Automatic generation of k-mesh.
 generate k-points for:    7    7    7
Space group operators:
 irot       det(A)        alpha          n_x          n_y          n_z        tau_x        tau_y        tau_z
    1     1.000000     0.000000     1.000000     0.000000     0.000000     0.000000     0.000000     0.000000
    2     1.000000   120.000000     0.448206     0.308416     0.839042     0.000000     0.000000     0.000000
    3     1.000000   120.000000    -0.448208    -0.308412    -0.839042     0.000000     0.000000     0.000000
 
 Subroutine IBZKPT returns following result:
 ===========================================
 
 Found     60 irreducible k-points:
 
 Following reciprocal coordinates:
            Coordinates               Weight
  0.000000  0.000000  0.000000      1.000000
  0.142857  0.000000  0.000000      6.000000
  0.285714  0.000000  0.000000      6.000000
  0.428571  0.000000  0.000000      6.000000
  0.142857  0.142857  0.000000      6.000000
  0.285714  0.142857  0.000000      6.000000
  0.428571  0.142857  0.000000      6.000000
 -0.428571  0.142857  0.000000      6.000000
 -0.285714  0.142857  0.000000      6.000000
 -0.142857  0.142857  0.000000      6.000000
  0.142857  0.285714  0.000000      6.000000
  0.285714  0.285714  0.000000      6.000000
  0.428571  0.285714  0.000000      6.000000
 -0.428571  0.285714  0.000000      6.000000
 -0.285714  0.285714  0.000000      6.000000
 -0.142857  0.285714  0.000000      6.000000
  0.142857  0.428571  0.000000      6.000000
  0.285714  0.428571  0.000000      6.000000
  0.428571  0.428571  0.000000      6.000000
 -0.428571  0.428571  0.000000      6.000000
 -0.285714  0.428571  0.000000      6.000000
 -0.142857  0.428571  0.000000      6.000000
  0.142857  0.142857  0.142857      2.000000
  0.285714  0.142857  0.142857      6.000000
  0.428571  0.142857  0.142857      6.000000
 -0.428571  0.142857  0.142857      6.000000
 -0.285714  0.142857  0.142857      6.000000
 -0.142857  0.142857  0.142857      6.000000
  0.285714  0.285714  0.142857      6.000000
  0.428571  0.285714  0.142857      6.000000
 -0.428571  0.285714  0.142857      6.000000
 -0.285714  0.285714  0.142857      6.000000
 -0.142857  0.285714  0.142857      6.000000
  0.285714  0.428571  0.142857      6.000000
  0.428571  0.428571  0.142857      6.000000
 -0.428571  0.428571  0.142857      6.000000
 -0.285714  0.428571  0.142857      6.000000
 -0.142857  0.428571  0.142857      6.000000
  0.285714 -0.428571  0.142857      6.000000
  0.428571 -0.428571  0.142857      6.000000
 -0.428571 -0.428571  0.142857      6.000000
 -0.285714 -0.428571  0.142857      6.000000
 -0.142857 -0.428571  0.142857      6.000000
  0.285714 -0.285714  0.142857      6.000000
  0.428571 -0.285714  0.142857      6.000000
 -0.428571 -0.285714  0.142857      6.000000
 -0.285714 -0.285714  0.142857      6.000000
 -0.142857 -0.285714  0.142857      6.000000
  0.285714  0.285714  0.285714      2.000000
  0.428571  0.285714  0.285714      6.000000
 -0.428571  0.285714  0.285714      6.000000
 -0.285714  0.285714  0.285714      6.000000
  0.428571  0.428571  0.285714      6.000000
 -0.428571  0.428571  0.285714      6.000000
 -0.285714  0.428571  0.285714      6.000000
  0.428571 -0.428571  0.285714      6.000000
 -0.428571 -0.428571  0.285714      6.000000
 -0.285714 -0.428571  0.285714      6.000000
  0.428571  0.428571  0.428571      2.000000
 -0.428571  0.428571  0.428571      6.000000
 
 Following cartesian coordinates:
            Coordinates               Weight
  0.000000  0.000000  0.000000      1.000000
  0.033125 -0.012673  0.000000      6.000000
  0.066249 -0.025346  0.000000      6.000000
  0.099374 -0.038018  0.000000      6.000000
  0.033125  0.022793  0.000000      6.000000
  0.066249  0.010120  0.000000      6.000000
  0.099374 -0.002552  0.000000      6.000000
 -0.099374  0.073484  0.000000      6.000000
 -0.066249  0.060812  0.000000      6.000000
 -0.033125  0.048139  0.000000      6.000000
  0.033125  0.058259  0.000000      6.000000
  0.066249  0.045587  0.000000      6.000000
  0.099374  0.032914  0.000000      6.000000
 -0.099374  0.108951  0.000000      6.000000
 -0.066249  0.096278  0.000000      6.000000
 -0.033125  0.083605  0.000000      6.000000
  0.033125  0.093725  0.000000      6.000000
  0.066249  0.081053  0.000000      6.000000
  0.099374  0.068380  0.000000      6.000000
 -0.099374  0.144417  0.000000      6.000000
 -0.066249  0.131744  0.000000      6.000000
 -0.033125  0.119071  0.000000      6.000000
  0.014708  0.010121  0.027533      2.000000
  0.047832 -0.002552  0.027533      6.000000
  0.080957 -0.015225  0.027533      6.000000
 -0.117791  0.060812  0.027533      6.000000
 -0.084666  0.048139  0.027533      6.000000
 -0.051542  0.035466  0.027533      6.000000
  0.047832  0.032914  0.027533      6.000000
  0.080957  0.020241  0.027533      6.000000
 -0.117791  0.096278  0.027533      6.000000
 -0.084666  0.083605  0.027533      6.000000
 -0.051542  0.070932  0.027533      6.000000
  0.047832  0.068380  0.027533      6.000000
  0.080957  0.055707  0.027533      6.000000
 -0.117791  0.131744  0.027533      6.000000
 -0.084666  0.119071  0.027533      6.000000
 -0.051542  0.106398  0.027533      6.000000
  0.047832 -0.144417  0.027533      6.000000
  0.080957 -0.157089  0.027533      6.000000
 -0.117791 -0.081053  0.027533      6.000000
 -0.084666 -0.093725  0.027533      6.000000
 -0.051542 -0.106398  0.027533      6.000000
  0.047832 -0.108951  0.027533      6.000000
  0.080957 -0.121623  0.027533      6.000000
 -0.117791 -0.045587  0.027533      6.000000
 -0.084666 -0.058259  0.027533      6.000000
 -0.051542 -0.070932  0.027533      6.000000
  0.029416  0.020241  0.055066      2.000000
  0.062540  0.007568  0.055066      6.000000
 -0.136208  0.083605  0.055066      6.000000
 -0.103083  0.070932  0.055066      6.000000
  0.062540  0.043034  0.055066      6.000000
 -0.136208  0.119071  0.055066      6.000000
 -0.103083  0.106398  0.055066      6.000000
  0.062540 -0.169762  0.055066      6.000000
 -0.136208 -0.093725  0.055066      6.000000
 -0.103083 -0.106398  0.055066      6.000000
  0.044123  0.030362  0.082599      2.000000
 -0.154625  0.106398  0.082599      6.000000
 


--------------------------------------------------------------------------------------------------------




 Dimension of arrays:
   k-points           NKPTS =     60   k-points in BZ     NKDIM =     60   number of bands    NBANDS=     40
   number of dos      NEDOS =    301   number of ions     NIONS =      9
   non local maximal  LDIM  =      6   non local SUM 2l+1 LMDIM =     18
   total plane-waves  NPLWV =  46656
   max r-space proj   IRMAX =      1   max aug-charges    IRDMAX=  24893
   dimension x,y,z NGX =    36 NGY =   36 NGZ =   36
   dimension x,y,z NGXF=    72 NGYF=   72 NGZF=   72
   support grid    NGXF=    72 NGYF=   72 NGZF=   72
   ions per type =               3   3   3
   NGX,Y,Z   is equivalent  to a cutoff of  11.53, 11.53, 11.53 a.u.
   NGXF,Y,Z  is equivalent  to a cutoff of  23.07, 23.07, 23.07 a.u.

 SYSTEM =  DFT routine                             
 POSCAR =  Ca3 Fe3 B3                              

 Startparameter for this run:
   NWRITE =      2    write-flag & timer
   PREC   = acc       normal or accurate (medium, high low for compatibility)
   ISTART =      0    job   : 0-new  1-cont  2-samecut
   ICHARG =      2    charge: 1-file 2-atom 10-const
   ISPIN  =      1    spin polarized calculation?
   LNONCOLLINEAR =      F non collinear calculations
   LSORBIT =      F    spin-orbit coupling
   INIWAV =      1    electr: 0-lowe 1-rand  2-diag
   LASPH  =      F    aspherical Exc in radial PAW
   METAGGA=      F    non-selfconsistent MetaGGA calc.

 Electronic Relaxation 1
   ENCUT  =  400.0 eV  29.40 Ry    5.42 a.u.   8.46  8.46  8.46*2*pi/ulx,y,z
   ENINI  =  400.0     initial cutoff
   ENAUG  =  535.5 eV  augmentation charge cutoff
   NELM   =    100;   NELMIN=  2; NELMDL= -5     # of ELM steps 
   EDIFF  = 0.1E-04   stopping-criterion for ELM
   LREAL  =      F    real-space projection
   NLSPLINE    = F    spline interpolate recip. space projectors
   LCOMPAT=      F    compatible to vasp.4.4
   GGA_COMPAT  = T    GGA compatible to vasp.4.4-vasp.4.6
   LMAXPAW     = -100 max onsite density
   LMAXMIX     =    2 max onsite mixed and CHGCAR
   VOSKOWN=      0    Vosko Wilk Nusair interpolation
   ROPT   =    0.00000   0.00000   0.00000
 Ionic relaxation
   EDIFFG = 0.1E-03   stopping-criterion for IOM
   NSW    =      3    number of steps for IOM
   NBLOCK =      1;   KBLOCK =      3    inner block; outer block 
   IBRION =      1    ionic relax: 0-MD 1-quasi-New 2-CG
   NFREE  =      0    steps in history (QN), initial steepest desc. (CG)
   ISIF   =      3    stress and relaxation
   IWAVPR =     11    prediction:  0-non 1-charg 2-wave 3-comb
   ISYM   =      2    0-nonsym 1-usesym 2-fastsym
   LCORR  =      T    Harris-Foulkes like correction to forces

   POTIM  = 0.1000    time-step for ionic-motion
   TEIN   =    0.0    initial temperature
   TEBEG  =    0.0;   TEEND  =   0.0 temperature during run
   SMASS  =  -3.00    Nose mass-parameter (am)
   estimated Nose-frequenzy (Omega)   =  0.10E-29 period in steps =****** mass=  -0.615E-27a.u.
   SCALEE = 1.0000    scale energy and forces
   NPACO  =    256;   APACO  = 16.0  distance and # of slots for P.C.
   PSTRESS=    0.0 pullay stress

  Mass of Ions in am
   POMASS =  40.08 55.85 10.81
  Ionic Valenz
   ZVAL   =  10.00  8.00  3.00
  Atomic Wigner-Seitz radii
   RWIGS  =  -1.00 -1.00 -1.00
  virtual crystal weights 
   VCA    =   1.00  1.00  1.00
   NELECT =      63.0000    total number of electrons
   NUPDOWN=      -1.0000    fix difference up-down

 DOS related values:
   EMIN   =  10.00;   EMAX   =-10.00  energy-range for DOS
   EFERMI =   0.00
   ISMEAR =     0;   SIGMA  =   0.01  broadening in eV -4-tet -1-fermi 0-gaus

 Electronic relaxation 2 (details)
   IALGO  =     38    algorithm
   LDIAG  =      T    sub-space diagonalisation (order eigenvalues)
   LSUBROT=      F    optimize rotation matrix (better conditioning)
   TURBO    =      0    0=normal 1=particle mesh
   IRESTART =      0    0=no restart 2=restart with 2 vectors
   NREBOOT  =      0    no. of reboots
   NMIN     =      0    reboot dimension
   EREF     =   0.00    reference energy to select bands
   IMIX   =      4    mixing-type and parameters
     AMIX     =   0.40;   BMIX     =  1.00
     AMIX_MAG =   1.60;   BMIX_MAG =  1.00
     AMIN     =   0.10
     WC   =   100.;   INIMIX=   1;  MIXPRE=   1;  MAXMIX= -45

 Intra band minimization:
   WEIMIN = 0.0010     energy-eigenvalue tresh-hold
   EBREAK =  0.63E-07  absolut break condition
   DEPER  =   0.30     relativ break condition  

   TIME   =   0.40     timestep for ELM

  volume/ion in A,a.u.               =      10.01        67.58
  Fermi-wavevector in a.u.,A,eV,Ry     =   1.452864  2.745514 28.719350  2.110813
  Thomas-Fermi vector in A             =   2.570196
 
 Write flags
   LWAVE        =      F    write WAVECAR
   LDOWNSAMPLE  =      F    k-point downsampling of WAVECAR
   LCHARG       =      F    write CHGCAR
   LVTOT        =      F    write LOCPOT, total local potential
   LVHAR        =      F    write LOCPOT, Hartree potential only
   LELF         =      F    write electronic localiz. function (ELF)
   LORBIT       =     10    0 simple, 1 ext, 2 COOP (PROOUT), +10 PAW based schemes


 Dipole corrections
   LMONO  =      F    monopole corrections only (constant potential shift)
   LDIPOL =      F    correct potential (dipole corrections)
   IDIPOL =      0    1-x, 2-y, 3-z, 4-all directions 
   EPSILON=  1.0000000 bulk dielectric constant

 Exchange correlation treatment:
   GGA     =    --    GGA type
   LEXCH   =     8    internal setting for exchange type
   VOSKOWN=      0    Vosko Wilk Nusair interpolation
   LHFCALC =     F    Hartree Fock is set to
   LHFONE  =     F    Hartree Fock one center treatment
   AEXX    =    0.0000 exact exchange contribution

 Linear response parameters
   LEPSILON=     F    determine dielectric tensor
   LRPA    =     F    only Hartree local field effects (RPA)
   LNABLA  =     F    use nabla operator in PAW spheres
   LVEL    =     F    velocity operator in full k-point grid
   LINTERFAST=   F  fast interpolation
   KINTER  =     0    interpolate to denser k-point grid
   CSHIFT  =0.1000    complex shift for real part using Kramers Kronig
   OMEGAMAX=  -1.0    maximum frequency
   DEG_THRESHOLD= 0.2000000E-02 threshold for treating states as degnerate
   RTIME   =   -0.100 relaxation time in fs
  (WPLASMAI=    0.000 imaginary part of plasma frequency in eV, 0.658/RTIME)
   DFIELD  = 0.0000000 0.0000000 0.0000000 field for delta impulse in time
 
 Orbital magnetization related:
   ORBITALMAG=     F  switch on orbital magnetization
   LCHIMAG   =     F  perturbation theory with respect to B field
   DQ        =  0.001000  dq finite difference perturbation B field
   LLRAUG    =     F  two centre corrections for induced B field



--------------------------------------------------------------------------------------------------------


 quasi-Newton-method for relaxation of ions
 charge density and potential will be updated during run
 non-spin polarized calculation
 Variant of blocked Davidson
 Davidson routine will perform the subspace rotation
 perform sub-space diagonalisation
    after iterative eigenvector-optimisation
 modified Broyden-mixing scheme, WC =      100.0
 initial mixing is a Kerker type mixing with AMIX =  0.4000 and BMIX =      1.0000
 Hartree-type preconditioning will be used
 using additional bands            8
 reciprocal scheme for non local part
 use partial core corrections
 calculate Harris-corrections to forces 
   (improved forces if not selfconsistent)
 use gradient corrections 
 use of overlap-Matrix (Vanderbilt PP)
 Gauss-broadening in eV      SIGMA  =   0.01


--------------------------------------------------------------------------------------------------------


  energy-cutoff  :      400.00
  volume of cell :       90.13
      direct lattice vectors                 reciprocal lattice vectors
     4.312714000  0.000000000  2.884800000     0.231872552 -0.088709574  0.000000000
     1.541026000  4.027994000  2.884800000     0.000000000  0.248262535  0.000000000
     0.000000000  0.000000000  5.188610000    -0.128918137 -0.088709381  0.192729845

  length of vectors
     5.188600301  5.188599795  5.188610000     0.248262500  0.248262535  0.248262026


 
 k-points in units of 2pi/SCALE and weight: Automatic mesh                          
   0.00000000  0.00000000  0.00000000       0.003
   0.03312465 -0.01267280  0.00000000       0.017
   0.06624930 -0.02534559  0.00000000       0.017
   0.09937395 -0.03801839  0.00000000       0.017
   0.03312465  0.02279328  0.00000000       0.017
   0.06624930  0.01012048  0.00000000       0.017
   0.09937395 -0.00255231  0.00000000       0.017
  -0.09937395  0.07348447  0.00000000       0.017
  -0.06624930  0.06081167  0.00000000       0.017
  -0.03312465  0.04813887  0.00000000       0.017
   0.03312465  0.05825936  0.00000000       0.017
   0.06624930  0.04558656  0.00000000       0.017
   0.09937395  0.03291376  0.00000000       0.017
  -0.09937395  0.10895054  0.00000000       0.017
  -0.06624930  0.09627775  0.00000000       0.017
  -0.03312465  0.08360495  0.00000000       0.017
   0.03312465  0.09372543  0.00000000       0.017
   0.06624930  0.08105264  0.00000000       0.017
   0.09937395  0.06837984  0.00000000       0.017
  -0.09937395  0.14441662  0.00000000       0.017
  -0.06624930  0.13174382  0.00000000       0.017
  -0.03312465  0.11907103  0.00000000       0.017
   0.01470777  0.01012051  0.02753283       0.006
   0.04783242 -0.00255228  0.02753283       0.017
   0.08095707 -0.01522508  0.02753283       0.017
  -0.11779083  0.06081170  0.02753283       0.017
  -0.08466618  0.04813890  0.02753283       0.017
  -0.05154153  0.03546610  0.02753283       0.017
   0.04783242  0.03291379  0.02753283       0.017
   0.08095707  0.02024100  0.02753283       0.017
  -0.11779083  0.09627777  0.02753283       0.017
  -0.08466618  0.08360498  0.02753283       0.017
  -0.05154153  0.07093218  0.02753283       0.017
   0.04783242  0.06837987  0.02753283       0.017
   0.08095707  0.05570707  0.02753283       0.017
  -0.11779083  0.13174385  0.02753283       0.017
  -0.08466618  0.11907105  0.02753283       0.017
  -0.05154153  0.10639826  0.02753283       0.017
   0.04783242 -0.14441659  0.02753283       0.017
   0.08095707 -0.15708939  0.02753283       0.017
  -0.11779083 -0.08105261  0.02753283       0.017
  -0.08466618 -0.09372541  0.02753283       0.017
  -0.05154153 -0.10639820  0.02753283       0.017
   0.04783242 -0.10895051  0.02753283       0.017
   0.08095707 -0.12162331  0.02753283       0.017
  -0.11779083 -0.04558653  0.02753283       0.017
  -0.08466618 -0.05825933  0.02753283       0.017
  -0.05154153 -0.07093213  0.02753283       0.017
   0.02941555  0.02024102  0.05506567       0.006
   0.06254020  0.00756823  0.05506567       0.017
  -0.13620770  0.08360500  0.05506567       0.017
  -0.10308305  0.07093221  0.05506567       0.017
   0.06254020  0.04303430  0.05506567       0.017
  -0.13620770  0.11907108  0.05506567       0.017
  -0.10308305  0.10639828  0.05506567       0.017
   0.06254020 -0.16976216  0.05506567       0.017
  -0.13620770 -0.09372538  0.05506567       0.017
  -0.10308305 -0.10639817  0.05506567       0.017
   0.04412332  0.03036153  0.08259850       0.006
  -0.15462458  0.10639831  0.08259850       0.017
 
 k-points in reciprocal lattice and weights: Automatic mesh                          
   0.00000000  0.00000000  0.00000000       0.003
   0.14285714  0.00000000  0.00000000       0.017
   0.28571429  0.00000000  0.00000000       0.017
   0.42857143  0.00000000  0.00000000       0.017
   0.14285714  0.14285714  0.00000000       0.017
   0.28571429  0.14285714  0.00000000       0.017
   0.42857143  0.14285714  0.00000000       0.017
  -0.42857143  0.14285714  0.00000000       0.017
  -0.28571429  0.14285714  0.00000000       0.017
  -0.14285714  0.14285714  0.00000000       0.017
   0.14285714  0.28571429  0.00000000       0.017
   0.28571429  0.28571429  0.00000000       0.017
   0.42857143  0.28571429  0.00000000       0.017
  -0.42857143  0.28571429  0.00000000       0.017
  -0.28571429  0.28571429  0.00000000       0.017
  -0.14285714  0.28571429  0.00000000       0.017
   0.14285714  0.42857143  0.00000000       0.017
   0.28571429  0.42857143  0.00000000       0.017
   0.42857143  0.42857143  0.00000000       0.017
  -0.42857143  0.42857143  0.00000000       0.017
  -0.28571429  0.42857143  0.00000000       0.017
  -0.14285714  0.42857143  0.00000000       0.017
   0.14285714  0.14285714  0.14285714       0.006
   0.28571429  0.14285714  0.14285714       0.017
   0.42857143  0.14285714  0.14285714       0.017
  -0.42857143  0.14285714  0.14285714       0.017
  -0.28571429  0.14285714  0.14285714       0.017
  -0.14285714  0.14285714  0.14285714       0.017
   0.28571429  0.28571429  0.14285714       0.017
   0.42857143  0.28571429  0.14285714       0.017
  -0.42857143  0.28571429  0.14285714       0.017
  -0.28571429  0.28571429  0.14285714       0.017
  -0.14285714  0.28571429  0.14285714       0.017
   0.28571429  0.42857143  0.14285714       0.017
   0.42857143  0.42857143  0.14285714       0.017
  -0.42857143  0.42857143  0.14285714       0.017
  -0.28571429  0.42857143  0.14285714       0.017
  -0.14285714  0.42857143  0.14285714       0.017
   0.28571429 -0.42857143  0.14285714       0.017
   0.42857143 -0.42857143  0.14285714       0.017
  -0.42857143 -0.42857143  0.14285714       0.017
  -0.28571429 -0.42857143  0.14285714       0.017
  -0.14285714 -0.42857143  0.14285714       0.017
   0.28571429 -0.28571429  0.14285714       0.017
   0.42857143 -0.28571429  0.14285714       0.017
  -0.42857143 -0.28571429  0.14285714       0.017
  -0.28571429 -0.28571429  0.14285714       0.017
  -0.14285714 -0.28571429  0.14285714       0.017
   0.28571429  0.28571429  0.28571429       0.006
   0.42857143  0.28571429  0.28571429       0.017
  -0.42857143  0.28571429  0.28571429       0.017
  -0.28571429  0.28571429  0.28571429       0.017
   0.42857143  0.42857143  0.28571429       0.017
  -0.42857143  0.42857143  0.28571429       0.017
  -0.28571429  0.42857143  0.28571429       0.017
   0.42857143 -0.42857143  0.28571429       0.017
  -0.42857143 -0.42857143  0.28571429       0.017
  -0.28571429 -0.42857143  0.28571429       0.017
   0.42857143  0.42857143  0.42857143       0.006
  -0.42857143  0.42857143  0.42857143       0.017
 
 position of ions in fractional coordinates (direct lattice) 
   0.40942000  0.48657000  0.53213000
   0.48657000  0.53213000  0.40942000
   0.53213000  0.40942000  0.48657000
   0.06912000  0.44833000  0.44833000
   0.44833000  0.44833000  0.06912000
   0.44833000  0.06912000  0.44833000
   0.09635000  0.38020000  0.38020000
   0.38020000  0.38020000  0.09635000
   0.38020000  0.09635000  0.38020000
 
 position of ions in cartesian coordinates  (Angst):
   2.51552839  1.95990104  5.34576699
   2.91846342  2.14341645  5.06306647
   2.92585137  1.64914130  5.24080541
   0.98898298  1.80587055  3.81894928
   2.62440725  1.80587055  2.94532149
   2.04003478  0.27841495  3.81894928
   1.00142808  1.53144332  3.34746096
   2.22559195  1.53144332  2.69352449
   1.78817172  0.38809722  3.34746096
 


--------------------------------------------------------------------------------------------------------


 k-point  1 :   0.0000 0.0000 0.0000  plane waves:    1629
 k-point  2 :   0.1429 0.0000 0.0000  plane waves:    1637
 k-point  3 :   0.2857 0.0000 0.0000  plane waves:    1644
 k-point  4 :   0.4286 0.0000 0.0000  plane waves:    1640
 k-point  5 :   0.1429 0.1429 0.0000  plane waves:    1636
 k-point  6 :   0.2857 0.1429 0.0000  plane waves:    1640
 k-point  7 :   0.4286 0.1429 0.0000  plane waves:    1646
 k-point  8 :  -0.4286 0.1429 0.0000  plane waves:    1634
 k-point  9 :  -0.2857 0.1429 0.0000  plane waves:    1649
 k-point 10 :  -0.1429 0.1429 0.0000  plane waves:    1638
 k-point 11 :   0.1429 0.2857 0.0000  plane waves:    1640
 k-point 12 :   0.2857 0.2857 0.0000  plane waves:    1642
 k-point 13 :   0.4286 0.2857 0.0000  plane waves:    1637
 k-point 14 :  -0.4286 0.2857 0.0000  plane waves:    1640
 k-point 15 :  -0.2857 0.2857 0.0000  plane waves:    1640
 k-point 16 :  -0.1429 0.2857 0.0000  plane waves:    1649
 k-point 17 :   0.1429 0.4286 0.0000  plane waves:    1646
 k-point 18 :   0.2857 0.4286 0.0000  plane waves:    1637
 k-point 19 :   0.4286 0.4286 0.0000  plane waves:    1643
 k-point 20 :  -0.4286 0.4286 0.0000  plane waves:    1648
 k-point 21 :  -0.2857 0.4286 0.0000  plane waves:    1640
 k-point 22 :  -0.1429 0.4286 0.0000  plane waves:    1634
 k-point 23 :   0.1429 0.1429 0.1429  plane waves:    1628
 k-point 24 :   0.2857 0.1429 0.1429  plane waves:    1635
 k-point 25 :   0.4286 0.1429 0.1429  plane waves:    1638
 k-point 26 :  -0.4286 0.1429 0.1429  plane waves:    1632
 k-point 27 :  -0.2857 0.1429 0.1429  plane waves:    1640
 k-point 28 :  -0.1429 0.1429 0.1429  plane waves:    1642
 k-point 29 :   0.2857 0.2857 0.1429  plane waves:    1630
 k-point 30 :   0.4286 0.2857 0.1429  plane waves:    1634
 k-point 31 :  -0.4286 0.2857 0.1429  plane waves:    1636
 k-point 32 :  -0.2857 0.2857 0.1429  plane waves:    1645
 k-point 33 :  -0.1429 0.2857 0.1429  plane waves:    1641
 k-point 34 :   0.2857 0.4286 0.1429  plane waves:    1634
 k-point 35 :   0.4286 0.4286 0.1429  plane waves:    1623
 k-point 36 :  -0.4286 0.4286 0.1429  plane waves:    1636
 k-point 37 :  -0.2857 0.4286 0.1429  plane waves:    1648
 k-point 38 :  -0.1429 0.4286 0.1429  plane waves:    1640
 k-point 39 :   0.2857-0.4286 0.1429  plane waves:    1636
 k-point 40 :   0.4286-0.4286 0.1429  plane waves:    1636
 k-point 41 :  -0.4286-0.4286 0.1429  plane waves:    1642
 k-point 42 :  -0.2857-0.4286 0.1429  plane waves:    1647
 k-point 43 :  -0.1429-0.4286 0.1429  plane waves:    1640
 k-point 44 :   0.2857-0.2857 0.1429  plane waves:    1645
 k-point 45 :   0.4286-0.2857 0.1429  plane waves:    1648
 k-point 46 :  -0.4286-0.2857 0.1429  plane waves:    1647
 k-point 47 :  -0.2857-0.2857 0.1429  plane waves:    1646
 k-point 48 :  -0.1429-0.2857 0.1429  plane waves:    1641
 k-point 49 :   0.2857 0.2857 0.2857  plane waves:    1619
 k-point 50 :   0.4286 0.2857 0.2857  plane waves:    1630
 k-point 51 :  -0.4286 0.2857 0.2857  plane waves:    1630
 k-point 52 :  -0.2857 0.2857 0.2857  plane waves:    1639
 k-point 53 :   0.4286 0.4286 0.2857  plane waves:    1621
 k-point 54 :  -0.4286 0.4286 0.2857  plane waves:    1627
 k-point 55 :  -0.2857 0.4286 0.2857  plane waves:    1632
 k-point 56 :   0.4286-0.4286 0.2857  plane waves:    1627
 k-point 57 :  -0.4286-0.4286 0.2857  plane waves:    1629
 k-point 58 :  -0.2857-0.4286 0.2857  plane waves:    1632
 k-point 59 :   0.4286 0.4286 0.4286  plane waves:    1607
 k-point 60 :  -0.4286 0.4286 0.4286  plane waves:    1610

 maximum and minimum number of plane-waves per node :       246      219

 maximum number of plane-waves:      1649
 maximum index in each direction: 
   IXMAX=    8   IYMAX=    8   IZMAX=    8
   IXMIN=   -8   IYMIN=   -8   IZMIN=   -8


 parallel 3D FFT for wavefunctions:
    minimum data exchange during FFTs selected (reduces bandwidth)
 parallel 3D FFT for charge:
    minimum data exchange during FFTs selected (reduces bandwidth)


 total amount of memory used by VASP MPI-rank0    40250. kBytes
=======================================================================

   base      :      30000. kBytes
   nonl-proj :       6125. kBytes
   fftplans  :        729. kBytes
   grid      :       1330. kBytes
   one-center:         31. kBytes
   wavefun   :       2035. kBytes
 
     INWAV:  cpu time    0.0000: real time    0.0000
 Broyden mixing: mesh for mixing (old mesh)
   NGX = 17   NGY = 17   NGZ = 17
  (NGX  = 72   NGY  = 72   NGZ  = 72)
  gives a total of   4913 points

 initial charge density was supplied:
 charge density of overlapping atoms calculated
 number of electron      63.0000000 magnetization 
 keeping initial charge density in first step


--------------------------------------------------------------------------------------------------------


 Maximum index for augmentation-charges         1324 (set IRDMAX)


--------------------------------------------------------------------------------------------------------


 First call to EWALD:  gamma=   0.395
 Maximum number of real-space cells 3x 3x 3
 Maximum number of reciprocal cells 3x 3x 3

    FEWALD:  cpu time    0.0014: real time    0.0014


--------------------------------------- Iteration      1(   1)  ---------------------------------------


    POTLOK:  cpu time    0.0158: real time    0.0158
    SETDIJ:  cpu time    0.0041: real time    0.0041
     EDDAV:  cpu time    1.2249: real time    1.2250
       DOS:  cpu time    0.0024: real time    0.0024
    --------------------------------------------
      LOOP:  cpu time    1.2472: real time    1.2473

 eigenvalue-minimisations  :  5360
 total energy-change (2. order) : 0.4094397E+04  (-0.3802740E+04)
 number of electron      63.0000000 magnetization 
 augmentation part       63.0000000 magnetization 

 Free energy of the ion-electron system (eV)
  ---------------------------------------------------
  alpha Z        PSCENC =       495.43390810
  Ewald energy   TEWEN  =      3052.53212193
  -Hartree energ DENC   =     -3538.65990592
  -exchange      EXHF   =         0.00000000
  -V(xc)+E(xc)   XCENC  =       209.76375618
  PAW double counting   =      4033.33269161    -4023.81525578
  entropy T*S    EENTRO =        -0.00008139
  eigenvalues    EBANDS =     -1148.86950207
  atomic energy  EATOM  =      5014.67969869
  Solvation  Ediel_sol  =         0.00000000
  ---------------------------------------------------
  free energy    TOTEN  =      4094.39743136 eV

  energy without entropy =     4094.39751275  energy(sigma->0) =     4094.39747206


--------------------------------------------------------------------------------------------------------




--------------------------------------- Iteration      1(   2)  ---------------------------------------


     EDDAV:  cpu time    1.2403: real time    1.2403
       DOS:  cpu time    0.0026: real time    0.0026
    --------------------------------------------
      LOOP:  cpu time    1.2429: real time    1.2429

 eigenvalue-minimisations  :  5660
 total energy-change (2. order) :-0.7789689E+03  (-0.7555611E+03)
 number of electron      63.0000000 magnetization 
 augmentation part       63.0000000 magnetization 

 Free energy of the ion-electron system (eV)
  ---------------------------------------------------
  alpha Z        PSCENC =       495.43390810
  Ewald energy   TEWEN  =      3052.53212193
  -Hartree energ DENC   =     -3538.65990592
  -exchange      EXHF   =         0.00000000
  -V(xc)+E(xc)   XCENC  =       209.76375618
  PAW double counting   =      4033.33269161    -4023.81525578
  entropy T*S    EENTRO =        -0.00017512
  eigenvalues    EBANDS =     -1927.83830278
  atomic energy  EATOM  =      5014.67969869
  Solvation  Ediel_sol  =         0.00000000
  ---------------------------------------------------
  free energy    TOTEN  =      3315.42853693 eV

  energy without entropy =     3315.42871204  energy(sigma->0) =     3315.42862448


--------------------------------------------------------------------------------------------------------




--------------------------------------- Iteration      1(   3)  ---------------------------------------


     EDDAV:  cpu time    1.1819: real time    1.1820
       DOS:  cpu time    0.0026: real time    0.0026
    --------------------------------------------
      LOOP:  cpu time    1.1846: real time    1.1846

 eigenvalue-minimisations  :  5270
 total energy-change (2. order) :-0.9338510E+02  (-0.9249662E+02)
 number of electron      63.0000000 magnetization 
 augmentation part       63.0000000 magnetization 

 Free energy of the ion-electron system (eV)
  ---------------------------------------------------
  alpha Z        PSCENC =       495.43390810
  Ewald energy   TEWEN  =      3052.53212193
  -Hartree energ DENC   =     -3538.65990592
  -exchange      EXHF   =         0.00000000
  -V(xc)+E(xc)   XCENC  =       209.76375618
  PAW double counting   =      4033.33269161    -4023.81525578
  entropy T*S    EENTRO =        -0.00259023
  eigenvalues    EBANDS =     -2021.22098388
  atomic energy  EATOM  =      5014.67969869
  Solvation  Ediel_sol  =         0.00000000
  ---------------------------------------------------
  free energy    TOTEN  =      3222.04344072 eV

  energy without entropy =     3222.04603094  energy(sigma->0) =     3222.04473583


--------------------------------------------------------------------------------------------------------




--------------------------------------- Iteration      1(   4)  ---------------------------------------


     EDDAV:  cpu time    1.2518: real time    1.2518
       DOS:  cpu time    0.0027: real time    0.0027
    --------------------------------------------
      LOOP:  cpu time    1.2545: real time    1.2546

 eigenvalue-minimisations  :  5710
 total energy-change (2. order) :-0.4807670E+01  (-0.4787270E+01)
 number of electron      63.0000000 magnetization 
 augmentation part       63.0000000 magnetization 

 Free energy of the ion-electron system (eV)
  ---------------------------------------------------
  alpha Z        PSCENC =       495.43390810
  Ewald energy   TEWEN  =      3052.53212193
  -Hartree energ DENC   =     -3538.65990592
  -exchange      EXHF   =         0.00000000
  -V(xc)+E(xc)   XCENC  =       209.76375618
  PAW double counting   =      4033.33269161    -4023.81525578
  entropy T*S    EENTRO =        -0.00206766
  eigenvalues    EBANDS =     -2026.02917644
  atomic energy  EATOM  =      5014.67969869
  Solvation  Ediel_sol  =         0.00000000
  ---------------------------------------------------
  free energy    TOTEN  =      3217.23577072 eV

  energy without entropy =     3217.23783838  energy(sigma->0) =     3217.23680455


--------------------------------------------------------------------------------------------------------




--------------------------------------- Iteration      1(   5)  ---------------------------------------


     EDDAV:  cpu time    1.2944: real time    1.2945
       DOS:  cpu time    0.0027: real time    0.0026
    CHARGE:  cpu time    0.0542: real time    0.0542
    MIXING:  cpu time    0.0006: real time    0.0006
    --------------------------------------------
      LOOP:  cpu time    1.3519: real time    1.3519

 eigenvalue-minimisations  :  5990
 total energy-change (2. order) :-0.1950660E+00  (-0.1950451E+00)
 number of electron      63.0000017 magnetization 
 augmentation part       36.6215292 magnetization 

 Broyden mixing:
  rms(total) = 0.12816E+02    rms(broyden)= 0.12814E+02
  rms(prec ) = 0.19939E+02
  weight for this iteration     100.00

 Free energy of the ion-electron system (eV)
  ---------------------------------------------------
  alpha Z        PSCENC =       495.43390810
  Ewald energy   TEWEN  =      3052.53212193
  -Hartree energ DENC   =     -3538.65990592
  -exchange      EXHF   =         0.00000000
  -V(xc)+E(xc)   XCENC  =       209.76375618
  PAW double counting   =      4033.33269161    -4023.81525578
  entropy T*S    EENTRO =        -0.00203118
  eigenvalues    EBANDS =     -2026.22427896
  atomic energy  EATOM  =      5014.67969869
  Solvation  Ediel_sol  =         0.00000000
  ---------------------------------------------------
  free energy    TOTEN  =      3217.04070469 eV

  energy without entropy =     3217.04273586  energy(sigma->0) =     3217.04172027


--------------------------------------------------------------------------------------------------------




--------------------------------------- Iteration      1(   6)  ---------------------------------------


    POTLOK:  cpu time    0.0110: real time    0.0110
    SETDIJ:  cpu time    0.0037: real time    0.0037
     EDDAV:  cpu time    1.5959: real time    1.5960
       DOS:  cpu time    0.0023: real time    0.0023
    CHARGE:  cpu time    0.0545: real time    0.0545
    MIXING:  cpu time    0.0006: real time    0.0006
    --------------------------------------------
      LOOP:  cpu time    1.6680: real time    1.6681

 eigenvalue-minimisations  :  7710
 total energy-change (2. order) : 0.1690091E+03  (-0.4299949E+02)
 number of electron      63.0000014 magnetization 
 augmentation part       29.4833655 magnetization 

 Broyden mixing:
  rms(total) = 0.12392E+02    rms(broyden)= 0.12392E+02
  rms(prec ) = 0.15626E+02
  weight for this iteration     100.00

 eigenvalues of (default mixing * dielectric matrix)
  average eigenvalue GAMMA=   0.5348
  0.5348

 Free energy of the ion-electron system (eV)
  ---------------------------------------------------
  alpha Z        PSCENC =       495.43390810
  Ewald energy   TEWEN  =      3052.53212193
  -Hartree energ DENC   =     -4365.70486998
  -exchange      EXHF   =         0.00000000
  -V(xc)+E(xc)   XCENC  =       231.60109420
  PAW double counting   =     14713.50614030   -14737.98254305
  entropy T*S    EENTRO =        -0.00010337
  eigenvalues    EBANDS =     -1018.01563777
  atomic energy  EATOM  =      5014.67969869
  Solvation  Ediel_sol  =         0.00000000
  ---------------------------------------------------
  free energy    TOTEN  =      3386.04980904 eV

  energy without entropy =     3386.04991242  energy(sigma->0) =     3386.04986073


--------------------------------------------------------------------------------------------------------




--------------------------------------- Iteration      1(   7)  ---------------------------------------


    POTLOK:  cpu time    0.0110: real time    0.0110
    SETDIJ:  cpu time    0.0035: real time    0.0035
     EDDAV:  cpu time    1.5393: real time    1.5394
       DOS:  cpu time    0.0028: real time    0.0028
    CHARGE:  cpu time    0.0544: real time    0.0635
    MIXING:  cpu time    0.0006: real time    0.0006
    --------------------------------------------
      LOOP:  cpu time    1.6115: real time    1.6207

 eigenvalue-minimisations  :  7410
 total energy-change (2. order) : 0.1888657E+02  (-0.3329163E+02)
 number of electron      63.0000012 magnetization 
 augmentation part       29.8215430 magnetization 

 Broyden mixing:
  rms(total) = 0.53591E+01    rms(broyden)= 0.53590E+01
  rms(prec ) = 0.79712E+01
  weight for this iteration     100.00

 eigenvalues of (default mixing * dielectric matrix)
  average eigenvalue GAMMA=   0.9981
  1.4012  0.5949

 Free energy of the ion-electron system (eV)
  ---------------------------------------------------
  alpha Z        PSCENC =       495.43390810
  Ewald energy   TEWEN  =      3052.53212193
  -Hartree energ DENC   =     -4286.46710255
  -exchange      EXHF   =         0.00000000
  -V(xc)+E(xc)   XCENC  =       230.39280161
  PAW double counting   =     27572.55969292   -27610.32659370
  entropy T*S    EENTRO =        -0.00069843
  eigenvalues    EBANDS =     -1063.86745163
  atomic energy  EATOM  =      5014.67969869
  Solvation  Ediel_sol  =         0.00000000
  ---------------------------------------------------
  free energy    TOTEN  =      3404.93637695 eV

  energy without entropy =     3404.93707538  energy(sigma->0) =     3404.93672617


--------------------------------------------------------------------------------------------------------




--------------------------------------- Iteration      1(   8)  ---------------------------------------


    POTLOK:  cpu time    0.0109: real time    0.0109
    SETDIJ:  cpu time    0.0035: real time    0.0035
     EDDAV:  cpu time    1.4999: real time    1.5000
       DOS:  cpu time    0.0027: real time    0.0027
    CHARGE:  cpu time    0.0545: real time    0.0545
    MIXING:  cpu time    0.0006: real time    0.0006
    --------------------------------------------
      LOOP:  cpu time    1.5722: real time    1.5723

 eigenvalue-minimisations  :  7180
 total energy-change (2. order) : 0.3277886E+01  (-0.9764982E+01)
 number of electron      63.0000012 magnetization 
 augmentation part       28.2977444 magnetization 

 Broyden mixing:
  rms(total) = 0.22427E+01    rms(broyden)= 0.22424E+01
  rms(prec ) = 0.54862E+01
  weight for this iteration     100.00

 eigenvalues of (default mixing * dielectric matrix)
  average eigenvalue GAMMA=   0.9528
  1.2263  1.2263  0.4057

 Free energy of the ion-electron system (eV)
  ---------------------------------------------------
  alpha Z        PSCENC =       495.43390810
  Ewald energy   TEWEN  =      3052.53212193
  -Hartree energ DENC   =     -4505.28231516
  -exchange      EXHF   =         0.00000000
  -V(xc)+E(xc)   XCENC  =       235.46206704
  PAW double counting   =     46302.28743026   -46325.01573732
  entropy T*S    EENTRO =        -0.00076758
  eigenvalues    EBANDS =      -861.88214290
  atomic energy  EATOM  =      5014.67969869
  Solvation  Ediel_sol  =         0.00000000
  ---------------------------------------------------
  free energy    TOTEN  =      3408.21426306 eV

  energy without entropy =     3408.21503064  energy(sigma->0) =     3408.21464685


--------------------------------------------------------------------------------------------------------




--------------------------------------- Iteration      1(   9)  ---------------------------------------


    POTLOK:  cpu time    0.0109: real time    0.0109
    SETDIJ:  cpu time    0.0035: real time    0.0035
     EDDAV:  cpu time    1.5595: real time    1.5595
       DOS:  cpu time    0.0023: real time    0.0023
    CHARGE:  cpu time    0.0543: real time    0.0543
    MIXING:  cpu time    0.0007: real time    0.0007
    --------------------------------------------
      LOOP:  cpu time    1.6311: real time    1.6312

 eigenvalue-minimisations  :  7630
 total energy-change (2. order) : 0.6559108E+01  (-0.4267588E+01)
 number of electron      63.0000012 magnetization 
 augmentation part       29.2266229 magnetization 

 Broyden mixing:
  rms(total) = 0.10470E+01    rms(broyden)= 0.10470E+01
  rms(prec ) = 0.13860E+01
  weight for this iteration     100.00

 eigenvalues of (default mixing * dielectric matrix)
  average eigenvalue GAMMA=   1.0921
  1.8852  1.0432  1.0432  0.3967

 Free energy of the ion-electron system (eV)
  ---------------------------------------------------
  alpha Z        PSCENC =       495.43390810
  Ewald energy   TEWEN  =      3052.53212193
  -Hartree energ DENC   =     -4410.42639764
  -exchange      EXHF   =         0.00000000
  -V(xc)+E(xc)   XCENC  =       233.24888988
  PAW double counting   =     47486.86990996   -47505.05070416
  entropy T*S    EENTRO =        -0.00004492
  eigenvalues    EBANDS =      -952.51401127
  atomic energy  EATOM  =      5014.67969869
  Solvation  Ediel_sol  =         0.00000000
  ---------------------------------------------------
  free energy    TOTEN  =      3414.77337058 eV

  energy without entropy =     3414.77341550  energy(sigma->0) =     3414.77339304


--------------------------------------------------------------------------------------------------------




--------------------------------------- Iteration      1(  10)  ---------------------------------------


    POTLOK:  cpu time    0.0110: real time    0.0110
    SETDIJ:  cpu time    0.0035: real time    0.0035
     EDDAV:  cpu time    1.4149: real time    1.4149
       DOS:  cpu time    0.0025: real time    0.0025
    CHARGE:  cpu time    0.0542: real time    0.0542
    MIXING:  cpu time    0.0008: real time    0.0008
    --------------------------------------------
      LOOP:  cpu time    1.4868: real time    1.4869

 eigenvalue-minimisations  :  6700
 total energy-change (2. order) :-0.5858016E-01  (-0.5629377E+00)
 number of electron      63.0000011 magnetization 
 augmentation part       28.7922261 magnetization 

 Broyden mixing:
  rms(total) = 0.46836E+00    rms(broyden)= 0.46830E+00
  rms(prec ) = 0.75477E+00
  weight for this iteration     100.00

 eigenvalues of (default mixing * dielectric matrix)
  average eigenvalue GAMMA=   1.0490
  1.5622  1.5622  0.3997  0.8604  0.8604

 Free energy of the ion-electron system (eV)
  ---------------------------------------------------
  alpha Z        PSCENC =       495.43390810
  Ewald energy   TEWEN  =      3052.53212193
  -Hartree energ DENC   =     -4440.68672692
  -exchange      EXHF   =         0.00000000
  -V(xc)+E(xc)   XCENC  =       234.26294563
  PAW double counting   =     53068.01954481   -53079.15385119
  entropy T*S    EENTRO =        -0.00041789
  eigenvalues    EBANDS =      -930.37243274
  atomic energy  EATOM  =      5014.67969869
  Solvation  Ediel_sol  =         0.00000000
  ---------------------------------------------------
  free energy    TOTEN  =      3414.71479042 eV

  energy without entropy =     3414.71520831  energy(sigma->0) =     3414.71499937


--------------------------------------------------------------------------------------------------------




--------------------------------------- Iteration      1(  11)  ---------------------------------------


    POTLOK:  cpu time    0.0109: real time    0.0109
    SETDIJ:  cpu time    0.0035: real time    0.0035
     EDDAV:  cpu time    1.2280: real time    1.2280
       DOS:  cpu time    0.0026: real time    0.0026
    CHARGE:  cpu time    0.0540: real time    0.0540
    MIXING:  cpu time    0.0008: real time    0.0008
    --------------------------------------------
      LOOP:  cpu time    1.2999: real time    1.2999

 eigenvalue-minimisations  :  5610
 total energy-change (2. order) :-0.1073048E-01  (-0.7484614E-01)
 number of electron      63.0000012 magnetization 
 augmentation part       28.9981468 magnetization 

 Broyden mixing:
  rms(total) = 0.17962E+00    rms(broyden)= 0.17954E+00
  rms(prec ) = 0.33788E+00
  weight for this iteration     100.00

 eigenvalues of (default mixing * dielectric matrix)
  average eigenvalue GAMMA=   1.1332
  2.2153  1.3921  0.3996  1.1258  0.8331  0.8331

 Free energy of the ion-electron system (eV)
  ---------------------------------------------------
  alpha Z        PSCENC =       495.43390810
  Ewald energy   TEWEN  =      3052.53212193
  -Hartree energ DENC   =     -4433.72591556
  -exchange      EXHF   =         0.00000000
  -V(xc)+E(xc)   XCENC  =       233.98164919
  PAW double counting   =     52998.33995602   -53003.61094708
  entropy T*S    EENTRO =        -0.00028716
  eigenvalues    EBANDS =      -942.92612418
  atomic energy  EATOM  =      5014.67969869
  Solvation  Ediel_sol  =         0.00000000
  ---------------------------------------------------
  free energy    TOTEN  =      3414.70405995 eV

  energy without entropy =     3414.70434711  energy(sigma->0) =     3414.70420353


--------------------------------------------------------------------------------------------------------




--------------------------------------- Iteration      1(  12)  ---------------------------------------


    POTLOK:  cpu time    0.0111: real time    0.0111
    SETDIJ:  cpu time    0.0035: real time    0.0035
     EDDAV:  cpu time    1.4097: real time    1.4097
       DOS:  cpu time    0.0026: real time    0.0026
    CHARGE:  cpu time    0.0543: real time    0.0544
    MIXING:  cpu time    0.0008: real time    0.0008
    --------------------------------------------
      LOOP:  cpu time    1.4820: real time    1.4821

 eigenvalue-minimisations  :  6720
 total energy-change (2. order) :-0.4755676E-01  (-0.3327575E-01)
 number of electron      63.0000012 magnetization 
 augmentation part       28.8289790 magnetization 

 Broyden mixing:
  rms(total) = 0.99923E-01    rms(broyden)= 0.99862E-01
  rms(prec ) = 0.18085E+00
  weight for this iteration     100.00

 eigenvalues of (default mixing * dielectric matrix)
  average eigenvalue GAMMA=   1.1762
  2.5297  1.6854  1.0496  1.0496  0.3992  0.7601  0.7601

 Free energy of the ion-electron system (eV)
  ---------------------------------------------------
  alpha Z        PSCENC =       495.43390810
  Ewald energy   TEWEN  =      3052.53212193
  -Hartree energ DENC   =     -4449.11565105
  -exchange      EXHF   =         0.00000000
  -V(xc)+E(xc)   XCENC  =       234.38842238
  PAW double counting   =     53988.49519265   -53989.80579347
  entropy T*S    EENTRO =        -0.00049513
  eigenvalues    EBANDS =      -931.95090091
  atomic energy  EATOM  =      5014.67969869
  Solvation  Ediel_sol  =         0.00000000
  ---------------------------------------------------
  free energy    TOTEN  =      3414.65650319 eV

  energy without entropy =     3414.65699832  energy(sigma->0) =     3414.65675075


--------------------------------------------------------------------------------------------------------




--------------------------------------- Iteration      1(  13)  ---------------------------------------


    POTLOK:  cpu time    0.0110: real time    0.0110
    SETDIJ:  cpu time    0.0035: real time    0.0035
     EDDAV:  cpu time    1.3336: real time    1.3337
       DOS:  cpu time    0.0027: real time    0.0026
    CHARGE:  cpu time    0.0541: real time    0.0541
    MIXING:  cpu time    0.0009: real time    0.0009
    --------------------------------------------
      LOOP:  cpu time    1.4057: real time    1.4058

 eigenvalue-minimisations  :  6180
 total energy-change (2. order) :-0.1834636E-01  (-0.1122482E-01)
 number of electron      63.0000012 magnetization 
 augmentation part       28.8593688 magnetization 

 Broyden mixing:
  rms(total) = 0.32724E-01    rms(broyden)= 0.32664E-01
  rms(prec ) = 0.78969E-01
  weight for this iteration     100.00

 eigenvalues of (default mixing * dielectric matrix)
  average eigenvalue GAMMA=   1.2149
  2.6919  1.8238  1.2074  1.2074  0.3992  0.7807  0.7807  0.8279

 Free energy of the ion-electron system (eV)
  ---------------------------------------------------
  alpha Z        PSCENC =       495.43390810
  Ewald energy   TEWEN  =      3052.53212193
  -Hartree energ DENC   =     -4447.31281009
  -exchange      EXHF   =         0.00000000
  -V(xc)+E(xc)   XCENC  =       234.35508084
  PAW double counting   =     54130.43299483   -54128.94276566
  entropy T*S    EENTRO =        -0.00028518
  eigenvalues    EBANDS =      -936.53978663
  atomic energy  EATOM  =      5014.67969869
  Solvation  Ediel_sol  =         0.00000000
  ---------------------------------------------------
  free energy    TOTEN  =      3414.63815683 eV

  energy without entropy =     3414.63844201  energy(sigma->0) =     3414.63829942


--------------------------------------------------------------------------------------------------------




--------------------------------------- Iteration      1(  14)  ---------------------------------------


    POTLOK:  cpu time    0.0109: real time    0.0109
    SETDIJ:  cpu time    0.0035: real time    0.0035
     EDDAV:  cpu time    1.1749: real time    1.1749
       DOS:  cpu time    0.0026: real time    0.0026
    CHARGE:  cpu time    0.0541: real time    0.0541
    MIXING:  cpu time    0.0009: real time    0.0008
    --------------------------------------------
      LOOP:  cpu time    1.2469: real time    1.2469

 eigenvalue-minimisations  :  5260
 total energy-change (2. order) :-0.4980214E-02  (-0.1432030E-02)
 number of electron      63.0000012 magnetization 
 augmentation part       28.8407634 magnetization 

 Broyden mixing:
  rms(total) = 0.23498E-01    rms(broyden)= 0.23460E-01
  rms(prec ) = 0.47281E-01
  weight for this iteration     100.00

 eigenvalues of (default mixing * dielectric matrix)
  average eigenvalue GAMMA=   1.2669
  2.5650  2.5650  1.2487  1.2487  0.3992  0.9284  0.9284  0.7595  0.7595

 Free energy of the ion-electron system (eV)
  ---------------------------------------------------
  alpha Z        PSCENC =       495.43390810
  Ewald energy   TEWEN  =      3052.53212193
  -Hartree energ DENC   =     -4449.70835763
  -exchange      EXHF   =         0.00000000
  -V(xc)+E(xc)   XCENC  =       234.41416998
  PAW double counting   =     54183.27951153   -54180.29095738
  entropy T*S    EENTRO =        -0.00030480
  eigenvalues    EBANDS =      -935.70661380
  atomic energy  EATOM  =      5014.67969869
  Solvation  Ediel_sol  =         0.00000000
  ---------------------------------------------------
  free energy    TOTEN  =      3414.63317662 eV

  energy without entropy =     3414.63348141  energy(sigma->0) =     3414.63332901


--------------------------------------------------------------------------------------------------------




--------------------------------------- Iteration      1(  15)  ---------------------------------------


    POTLOK:  cpu time    0.0110: real time    0.0110
    SETDIJ:  cpu time    0.0035: real time    0.0035
     EDDAV:  cpu time    1.4668: real time    1.4668
       DOS:  cpu time    0.0026: real time    0.0026
    CHARGE:  cpu time    0.0539: real time    0.0539
    MIXING:  cpu time    0.0009: real time    0.0009
    --------------------------------------------
      LOOP:  cpu time    1.5387: real time    1.5387

 eigenvalue-minimisations  :  7070
 total energy-change (2. order) :-0.1123712E-02  (-0.6135072E-03)
 number of electron      63.0000012 magnetization 
 augmentation part       28.8222311 magnetization 

 Broyden mixing:
  rms(total) = 0.10269E-01    rms(broyden)= 0.10235E-01
  rms(prec ) = 0.12466E-01
  weight for this iteration     100.00

 eigenvalues of (default mixing * dielectric matrix)
  average eigenvalue GAMMA=   1.3076
  3.0799  2.3131  1.3771  1.3771  1.2687  0.3992  0.8586  0.8586  0.7717  0.7717

 Free energy of the ion-electron system (eV)
  ---------------------------------------------------
  alpha Z        PSCENC =       495.43390810
  Ewald energy   TEWEN  =      3052.53212193
  -Hartree energ DENC   =     -4451.43973342
  -exchange      EXHF   =         0.00000000
  -V(xc)+E(xc)   XCENC  =       234.45805558
  PAW double counting   =     54166.88964426   -54163.05410597
  entropy T*S    EENTRO =        -0.00032875
  eigenvalues    EBANDS =      -934.86720751
  atomic energy  EATOM  =      5014.67969869
  Solvation  Ediel_sol  =         0.00000000
  ---------------------------------------------------
  free energy    TOTEN  =      3414.63205290 eV

  energy without entropy =     3414.63238166  energy(sigma->0) =     3414.63221728


--------------------------------------------------------------------------------------------------------




--------------------------------------- Iteration      1(  16)  ---------------------------------------


    POTLOK:  cpu time    0.0110: real time    0.0110
    SETDIJ:  cpu time    0.0035: real time    0.0035
     EDDAV:  cpu time    1.2932: real time    1.2932
       DOS:  cpu time    0.0026: real time    0.0026
    CHARGE:  cpu time    0.0542: real time    0.0542
    MIXING:  cpu time    0.0009: real time    0.0009
    --------------------------------------------
      LOOP:  cpu time    1.3654: real time    1.3654

 eigenvalue-minimisations  :  6010
 total energy-change (2. order) :-0.2083416E-03  (-0.8435782E-04)
 number of electron      63.0000012 magnetization 
 augmentation part       28.8210894 magnetization 

 Broyden mixing:
  rms(total) = 0.28778E-02    rms(broyden)= 0.28517E-02
  rms(prec ) = 0.35614E-02
  weight for this iteration     100.00

 eigenvalues of (default mixing * dielectric matrix)
  average eigenvalue GAMMA=   1.3590
  3.2502  2.1867  2.1867  1.3033  1.3033  0.3992  0.9648  0.9648  0.7775  0.7775
  0.8344

 Free energy of the ion-electron system (eV)
  ---------------------------------------------------
  alpha Z        PSCENC =       495.43390810
  Ewald energy   TEWEN  =      3052.53212193
  -Hartree energ DENC   =     -4451.54492610
  -exchange      EXHF   =         0.00000000
  -V(xc)+E(xc)   XCENC  =       234.46218536
  PAW double counting   =     54140.32531405   -54136.17660432
  entropy T*S    EENTRO =        -0.00032313
  eigenvalues    EBANDS =      -935.07953003
  atomic energy  EATOM  =      5014.67969869
  Solvation  Ediel_sol  =         0.00000000
  ---------------------------------------------------
  free energy    TOTEN  =      3414.63184456 eV

  energy without entropy =     3414.63216769  energy(sigma->0) =     3414.63200612


--------------------------------------------------------------------------------------------------------




--------------------------------------- Iteration      1(  17)  ---------------------------------------


    POTLOK:  cpu time    0.0110: real time    0.0110
    SETDIJ:  cpu time    0.0035: real time    0.0035
     EDDAV:  cpu time    1.2525: real time    1.2525
       DOS:  cpu time    0.0025: real time    0.0025
    CHARGE:  cpu time    0.0539: real time    0.0540
    MIXING:  cpu time    0.0010: real time    0.0010
    --------------------------------------------
      LOOP:  cpu time    1.3244: real time    1.3245

 eigenvalue-minimisations  :  5590
 total energy-change (2. order) :-0.2425566E-04  (-0.6953255E-05)
 number of electron      63.0000012 magnetization 
 augmentation part       28.8205090 magnetization 

 Broyden mixing:
  rms(total) = 0.10829E-02    rms(broyden)= 0.10768E-02
  rms(prec ) = 0.15350E-02
  weight for this iteration     100.00

 eigenvalues of (default mixing * dielectric matrix)
  average eigenvalue GAMMA=   1.3550
  3.3501  2.3066  2.3066  0.3992  1.2459  1.2459  1.0690  1.0690  0.8546  0.8546
  0.7791  0.7791

 Free energy of the ion-electron system (eV)
  ---------------------------------------------------
  alpha Z        PSCENC =       495.43390810
  Ewald energy   TEWEN  =      3052.53212193
  -Hartree energ DENC   =     -4451.58574418
  -exchange      EXHF   =         0.00000000
  -V(xc)+E(xc)   XCENC  =       234.46351511
  PAW double counting   =     54137.52436619   -54133.29507376
  entropy T*S    EENTRO =        -0.00032111
  eigenvalues    EBANDS =      -935.12065066
  atomic energy  EATOM  =      5014.67969869
  Solvation  Ediel_sol  =         0.00000000
  ---------------------------------------------------
  free energy    TOTEN  =      3414.63182031 eV

  energy without entropy =     3414.63214141  energy(sigma->0) =     3414.63198086


--------------------------------------------------------------------------------------------------------




--------------------------------------- Iteration      1(  18)  ---------------------------------------


    POTLOK:  cpu time    0.0109: real time    0.0109
    SETDIJ:  cpu time    0.0035: real time    0.0035
     EDDAV:  cpu time    1.0326: real time    1.0327
       DOS:  cpu time    0.0026: real time    0.0026
    --------------------------------------------
      LOOP:  cpu time    1.0496: real time    1.0497

 eigenvalue-minimisations  :  4100
 total energy-change (2. order) :-0.3252360E-05  (-0.8938050E-06)
 number of electron      63.0000012 magnetization 
 augmentation part       28.8205090 magnetization 

 Free energy of the ion-electron system (eV)
  ---------------------------------------------------
  alpha Z        PSCENC =       495.43390810
  Ewald energy   TEWEN  =      3052.53212193
  -Hartree energ DENC   =     -4451.57067149
  -exchange      EXHF   =         0.00000000
  -V(xc)+E(xc)   XCENC  =       234.46291218
  PAW double counting   =     54137.54528012   -54133.28832305
  entropy T*S    EENTRO =        -0.00032048
  eigenvalues    EBANDS =      -935.16278895
  atomic energy  EATOM  =      5014.67969869
  Solvation  Ediel_sol  =         0.00000000
  ---------------------------------------------------
  free energy    TOTEN  =      3414.63181705 eV

  energy without entropy =     3414.63213753  energy(sigma->0) =     3414.63197729


--------------------------------------------------------------------------------------------------------




 average (electrostatic) potential at core
  the test charge radii are     1.1137  1.0103  0.7672
  (the norm of the test charge is              1.0000)
       1 -69.3414       2 -69.3414       3 -69.3414       4 -48.2621       5 -48.2620
       6 -48.2621       7 -44.4351       8 -44.4350       9 -44.4351
 
 
 
 E-fermi :   5.0411     XC(G=0): -10.4346     alpha+bet :-18.8108


 k-point     1 :       0.0000    0.0000    0.0000
  band No.  band energies     occupation 
      1    -107.2392      2.00000
      2     -61.3305      2.00000
      3     -58.7886      2.00000
      4     -58.7886      2.00000
      5     -48.0405      2.00000
      6     -24.0246      2.00000
      7     -24.0246      2.00000
      8     -23.4079      2.00000
      9     -23.4079      2.00000
     10     -23.0054      2.00000
     11     -11.4878      2.00000
     12      -6.9426      2.00000
     13      -6.9426      2.00000
     14      -6.1531      2.00000
     15      -2.7319      2.00000
     16      -2.7319      2.00000
     17      -2.3485      2.00000
     18      -1.2427      2.00000
     19      -1.2427      2.00000
     20      -0.7311      2.00000
     21      -0.6199      2.00000
     22      -0.6199      2.00000
     23       0.0883      2.00000
     24       2.2509      2.00000
     25       2.2510      2.00000
     26       2.8932      2.00000
     27       2.8932      2.00000
     28       3.4072      2.00000
     29       3.9890      2.00000
     30       4.4528      2.00000
     31       4.6140      2.00000
     32       4.6140      2.00000
     33       5.4146      0.00000
     34       6.7178      0.00000
     35       7.9315      0.00000
     36       7.9315      0.00000
     37       9.5074      0.00000
     38       9.5074      0.00000
     39       9.9227      0.00000
     40      11.1524      0.00000

 k-point     2 :       0.1429    0.0000    0.0000
  band No.  band energies     occupation 
      1    -107.3539      2.00000
      2     -61.3303      2.00000
      3     -58.7934      2.00000
      4     -58.7915      2.00000
      5     -48.0587      2.00000
      6     -24.0236      2.00000
      7     -24.0205      2.00000
      8     -23.4120      2.00000
      9     -23.4105      2.00000
     10     -23.0037      2.00000
     11     -11.4777      2.00000
     12      -6.9418      2.00000
     13      -6.9276      2.00000
     14      -6.1496      2.00000
     15      -2.8719      2.00000
     16      -2.6961      2.00000
     17      -2.3449      2.00000
     18      -1.4291      2.00000
     19      -1.2752      2.00000
     20      -0.7610      2.00000
     21      -0.5772      2.00000
     22      -0.5244      2.00000
     23       0.4209      2.00000
     24       2.1308      2.00000
     25       2.2419      2.00000
     26       2.8302      2.00000
     27       2.8935      2.00000
     28       3.4475      2.00000
     29       3.9794      2.00000
     30       4.2010      2.00000
     31       4.6188      2.00000
     32       4.7775      2.00000
     33       5.4268      0.00000
     34       6.4831      0.00000
     35       7.8057      0.00000
     36       7.9740      0.00000
     37       9.3362      0.00000
     38       9.3762      0.00000
     39      10.2138      0.00000
     40      11.1325      0.00000

 k-point     3 :       0.2857    0.0000    0.0000
  band No.  band energies     occupation 
      1    -107.4184      2.00000
      2     -61.3307      2.00000
      3     -58.7950      2.00000
      4     -58.7931      2.00000
      5     -48.0664      2.00000
      6     -24.0235      2.00000
      7     -24.0123      2.00000
      8     -23.4147      2.00000
      9     -23.4091      2.00000
     10     -22.9990      2.00000
     11     -11.4543      2.00000
     12      -6.9398      2.00000
     13      -6.8943      2.00000
     14      -6.1416      2.00000
     15      -3.1379      2.00000
     16      -2.6459      2.00000
     17      -2.3440      2.00000
     18      -1.6147      2.00000
     19      -1.3312      2.00000
     20      -0.8017      2.00000
     21      -0.5268      2.00000
     22      -0.4031      2.00000
     23       1.0732      2.00000
     24       1.8825      2.00000
     25       2.2223      2.00000
     26       2.7046      2.00000
     27       2.8927      2.00000
     28       3.5396      2.00000
     29       3.8104      2.00000
     30       3.9858      2.00000
[...]
     31       4.9625      2.00000
     32       5.2845      0.00000
     33       5.3527      0.00000
     34       6.6866      0.00000
     35       6.8763      0.00000
     36       8.3777      0.00000
     37       9.1103      0.00000
     38       9.4986      0.00000
     39       9.8689      0.00000
     40      10.7563      0.00000

 k-point    55 :      -0.2857    0.4286    0.2857
  band No.  band energies     occupation 
      1    -107.4151      2.00000
      2     -61.3311      2.00000
      3     -58.7940      2.00000
      4     -58.7921      2.00000
      5     -48.0561      2.00000
      6     -24.0028      2.00000
      7     -23.9949      2.00000
      8     -23.4104      2.00000
      9     -23.4082      2.00000
     10     -22.9850      2.00000
     11     -11.4450      2.00000
     12      -6.9543      2.00000
     13      -6.8957      2.00000
     14      -6.1602      2.00000
     15      -3.2793      2.00000
     16      -3.0688      2.00000
     17      -2.4942      2.00000
     18      -1.9202      2.00000
     19      -1.7485      2.00000
     20      -0.8445      2.00000
     21      -0.1289      2.00000
     22       0.3201      2.00000
     23       1.3644      2.00000
     24       1.7730      2.00000
     25       2.1271      2.00000
     26       2.7000      2.00000
     27       2.8896      2.00000
     28       3.6299      2.00000
     29       3.7494      2.00000
     30       3.9072      2.00000
     31       4.5131      2.00000
     32       5.2027      0.00000
     33       5.2628      0.00000
     34       6.1682      0.00000
     35       7.1906      0.00000
     36       8.5842      0.00000
     37       8.8236      0.00000
     38       9.5473      0.00000
     39      10.2320      0.00000
     40      10.9227      0.00000

 k-point    56 :       0.4286   -0.4286    0.2857
  band No.  band energies     occupation 
      1    -107.3872      2.00000
      2     -61.3311      2.00000
      3     -58.7949      2.00000
      4     -58.7921      2.00000
      5     -48.0487      2.00000
      6     -23.9977      2.00000
      7     -23.9909      2.00000
      8     -23.4090      2.00000
      9     -23.4073      2.00000
     10     -22.9831      2.00000
     11     -11.4684      2.00000
     12      -6.9693      2.00000
     13      -6.9306      2.00000
     14      -6.1865      2.00000
     15      -3.2805      2.00000
     16      -3.0556      2.00000
     17      -2.5216      2.00000
     18      -2.0703      2.00000
     19      -1.9078      2.00000
     20      -0.8112      2.00000
     21       0.0726      2.00000
     22       0.4539      2.00000
     23       0.8761      2.00000
     24       1.8970      2.00000
     25       2.1309      2.00000
     26       2.8918      2.00000
     27       2.9624      2.00000
     28       3.4912      2.00000
     29       3.9033      2.00000
     30       4.0361      2.00000
     31       4.9399      2.00000
     32       5.3182      0.00000
     33       5.3513      0.00000
     34       6.6515      0.00000
     35       6.8722      0.00000
     36       8.4335      0.00000
     37       9.0826      0.00000
     38       9.4366      0.00000
     39      10.0010      0.00000
     40      10.8738      0.00000

 k-point    57 :      -0.4286   -0.4286    0.2857
  band No.  band energies     occupation 
      1    -107.3728      2.00000
      2     -61.3320      2.00000
      3     -58.7930      2.00000
      4     -58.7906      2.00000
      5     -48.0463      2.00000
      6     -23.9986      2.00000
      7     -23.9909      2.00000
      8     -23.4092      2.00000
      9     -23.4054      2.00000
     10     -22.9830      2.00000
     11     -11.4617      2.00000
     12      -6.9705      2.00000
     13      -6.9174      2.00000
     14      -6.1805      2.00000
     15      -3.2623      2.00000
     16      -3.1155      2.00000
     17      -2.5256      2.00000
     18      -2.0471      2.00000
     19      -1.8597      2.00000
     20      -0.8226      2.00000
     21       0.0151      2.00000
     22       0.4809      2.00000
     23       0.9993      2.00000
     24       1.8504      2.00000
     25       2.1220      2.00000
     26       2.8334      2.00000
     27       2.9545      2.00000
     28       3.5479      2.00000
     29       3.8852      2.00000
     30       3.9749      2.00000
     31       4.7648      2.00000
     32       5.2683      0.00000
     33       5.3697      0.00000
     34       6.3252      0.00000
     35       7.6077      0.00000
     36       7.9173      0.00000
     37       8.9670      0.00000
     38       9.6333      0.00000
     39      10.0062      0.00000
     40      10.7712      0.00000

 k-point    58 :      -0.2857   -0.4286    0.2857
  band No.  band energies     occupation 
      1    -107.4118      2.00000
      2     -61.3313      2.00000
      3     -58.7930      2.00000
      4     -58.7922      2.00000
      5     -48.0554      2.00000
      6     -24.0028      2.00000
      7     -23.9951      2.00000
      8     -23.4101      2.00000
      9     -23.4078      2.00000
     10     -22.9849      2.00000
     11     -11.4450      2.00000
     12      -6.9553      2.00000
     13      -6.8946      2.00000
     14      -6.1600      2.00000
     15      -3.2750      2.00000
     16      -3.0724      2.00000
     17      -2.4983      2.00000
     18      -1.9303      2.00000
     19      -1.7358      2.00000
     20      -0.8445      2.00000
     21      -0.1289      2.00000
     22       0.3199      2.00000
     23       1.3748      2.00000
     24       1.7709      2.00000
     25       2.1262      2.00000
     26       2.7149      2.00000
     27       2.8742      2.00000
     28       3.6408      2.00000
     29       3.7534      2.00000
     30       3.9043      2.00000
     31       4.4785      2.00000
     32       5.1520      0.00000
     33       5.3076      0.00000
     34       6.1660      0.00000
     35       7.2356      0.00000
     36       8.5213      0.00000
     37       8.8609      0.00000
     38       9.5925      0.00000
     39      10.1844      0.00000
     40      10.8741      0.00000

 k-point    59 :       0.4286    0.4286    0.4286
  band No.  band energies     occupation 
      1    -107.2159      2.00000
      2     -61.3313      2.00000
      3     -58.7892      2.00000
      4     -58.7871      2.00000
      5     -48.0171      2.00000
      6     -23.9904      2.00000
      7     -23.9899      2.00000
      8     -23.4022      2.00000
      9     -23.4020      2.00000
     10     -22.9813      2.00000
     11     -11.4981      2.00000
     12      -6.9829      2.00000
     13      -6.9772      2.00000
     14      -6.2183      2.00000
     15      -3.2254      2.00000
     16      -3.0687      2.00000
     17      -2.5482      2.00000
     18      -2.2077      2.00000
     19      -2.0978      2.00000
     20      -0.7656      2.00000
     21       0.2401      2.00000
     22       0.5407      2.00000
     23       0.5736      2.00000
     24       2.1487      2.00000
     25       2.1618      2.00000
     26       3.0378      2.00000
     27       3.0716      2.00000
     28       3.1432      2.00000
     29       3.9148      2.00000
     30       4.4617      2.00000
     31       5.1607      0.00000
     32       5.3236      0.00000
     33       5.3292      0.00000
     34       7.2830      0.00000
     35       7.7182      0.00000
     36       7.7665      0.00000
     37       9.4062      0.00000
     38       9.4161      0.00000
     39       9.5325      0.00000
     40      10.8150      0.00000

 k-point    60 :      -0.4286    0.4286    0.4286
  band No.  band energies     occupation 
      1    -107.2598      2.00000
      2     -61.3313      2.00000
      3     -58.7898      2.00000
      4     -58.7884      2.00000
      5     -48.0252      2.00000
      6     -23.9899      2.00000
      7     -23.9897      2.00000
      8     -23.4049      2.00000
      9     -23.4029      2.00000
     10     -22.9805      2.00000
     11     -11.4871      2.00000
     12      -6.9781      2.00000
     13      -6.9627      2.00000
     14      -6.2091      2.00000
     15      -3.2073      2.00000
     16      -3.1552      2.00000
     17      -2.5386      2.00000
     18      -2.1321      2.00000
     19      -2.0843      2.00000
     20      -0.7844      2.00000
     21       0.2530      2.00000
     22       0.5446      2.00000
     23       0.6086      2.00000
     24       2.0474      2.00000
     25       2.1436      2.00000
     26       2.9970      2.00000
     27       3.0374      2.00000
     28       3.2826      2.00000
     29       3.9210      2.00000
     30       4.2906      2.00000
     31       5.1148      0.00000
     32       5.3591      0.00000
     33       5.3881      0.00000
     34       6.8733      0.00000
     35       7.5519      0.00000
     36       7.8116      0.00000
     37       9.2998      0.00000
     38       9.5981      0.00000
     39       9.7197      0.00000
     40      10.7669      0.00000


--------------------------------------------------------------------------------------------------------


 soft charge-density along one line, spin component           1
         0         1         2         3         4         5         6         7         8         9
 total charge-density along one line
 
 pseudopotential strength for first ion, spin component:           1
-25.162  -8.568   0.453   1.373  -2.718  -0.591  -1.794   3.539
 -8.568   0.645   0.222   0.677  -1.331   0.035   0.105  -0.207
  0.453   0.222 -29.356  -0.462  -0.380  16.427   0.436   0.345
  1.373   0.677  -0.462 -30.417  -1.081   0.436  17.433   0.980
 -2.718  -1.331  -0.380  -1.081 -28.828   0.345   0.980  15.998
 -0.591   0.035  16.427   0.436   0.345   3.217  -0.249  -0.243
 -1.794   0.105   0.436  17.433   0.980  -0.249   2.654  -0.696
  3.539  -0.207   0.345   0.980  15.998  -0.243  -0.696   3.697
 -0.366  -0.030  -2.163  -0.054   0.196   2.250   0.056  -0.237
 -0.442  -0.077   1.147   0.550  -0.054  -1.187  -0.552   0.056
 -0.736  -0.083  -0.055   1.662   1.214   0.078  -1.675  -1.280
 -1.043  -0.082  -0.054  -2.277   0.655   0.056   2.371  -0.774
  0.260  -0.040  -0.449  -0.246  -2.217   0.450   0.207   2.338
 -0.447  -0.026  -2.629  -0.065   0.241   2.555   0.063  -0.265
 -0.541  -0.077   1.394   0.666  -0.065  -1.349  -0.627   0.063
 -0.900  -0.078  -0.069   2.016   1.476   0.088  -1.906  -1.450
 -1.274  -0.071  -0.065  -2.767   0.803   0.063   2.688  -0.867
  0.315  -0.049  -0.545  -0.295  -2.695   0.513   0.241   2.645
 total augmentation occupancy for first ion, spin component:           1
  2.057   0.150  -0.064  -0.194   0.392   0.050   0.145  -0.325   0.106   0.322   0.290   0.288   0.255  -0.225  -0.407  -0.501
  0.150   4.627   0.238   0.723  -1.557   0.083   0.254  -0.587   0.042  -0.020   0.042   0.128  -0.126   0.247   0.107   0.383
 -0.064   0.238   1.862  -0.008  -0.230   0.372  -0.068  -0.082   1.029  -0.498   0.286  -0.257   0.104  -0.906   0.473  -0.220
 -0.194   0.723  -0.008   1.881  -0.685  -0.068   0.218  -0.230  -0.275   0.017  -0.211   0.407  -0.244   0.351   0.039   0.333
  0.392  -1.557  -0.230  -0.685   2.990  -0.079  -0.219   0.581  -0.118   0.185  -0.117  -0.350   0.657  -0.085  -0.321  -0.229
  0.050   0.083   0.372  -0.068  -0.079   0.785  -0.143  -0.129   1.517  -0.658   0.504  -0.312   0.202  -1.164   0.479  -0.479
  0.145   0.254  -0.068   0.218  -0.219  -0.143   0.449  -0.368  -0.301   0.297  -0.062   0.764  -0.178   0.245  -0.357  -0.166
 -0.325  -0.587  -0.082  -0.230   0.581  -0.129  -0.368   0.990  -0.369  -0.247  -0.658  -1.002   0.518   0.389   0.255   0.581
  0.106   0.042   1.029  -0.275  -0.118   1.517  -0.301  -0.369   5.668  -1.777   1.566  -1.216   0.440  -5.560   1.747  -1.609
  0.322  -0.020  -0.498   0.017   0.185  -0.658   0.297  -0.247  -1.777   2.592  -0.505   0.766   0.066   1.684  -2.568   0.622
  0.290   0.042   0.286  -0.211  -0.117   0.504  -0.062  -0.658   1.566  -0.505   2.042   0.064   0.272  -1.603   0.630  -1.737
  0.288   0.128  -0.257   0.407  -0.350  -0.312   0.764  -1.002  -1.216   0.766   0.064   2.778  -0.901   1.319  -0.781  -0.168
  0.255  -0.126   0.104  -0.244   0.657   0.202  -0.178   0.518   0.440   0.066   0.272  -0.901   2.584  -0.396  -0.178  -0.500
 -0.225   0.247  -0.906   0.351  -0.085  -1.164   0.245   0.389  -5.560   1.684  -1.603   1.319  -0.396   6.770  -1.690   1.773
 -0.407   0.107   0.473   0.039  -0.321   0.479  -0.357   0.255   1.747  -2.568   0.630  -0.781  -0.178  -1.690   3.714  -0.786
 -0.501   0.383  -0.220   0.333  -0.229  -0.479  -0.166   0.581  -1.609   0.622  -1.737  -0.168  -0.500   1.773  -0.786   2.565
 -0.629   0.733   0.330  -0.096  -0.238   0.257  -0.552   1.046   1.334  -0.825  -0.246  -2.450   0.973  -1.448   0.937   0.551
 -0.068  -0.431  -0.132   0.112  -0.372  -0.120   0.236  -0.377  -0.402  -0.169  -0.486   1.004  -2.513   0.306   0.300   0.712


------------------------ aborting loop because EDIFF is reached ----------------------------------------


 


 total charge     
 
# of ion       s       p       d       tot
------------------------------------------
    1        2.507   7.498   6.272  16.276
    2        2.503   7.494   6.291  16.288
    3        2.503   7.492   6.270  16.265
    4        1.235   1.187   9.552  11.974
    5        1.240   1.218   9.577  12.035
    6        1.217   1.173   9.572  11.961
    7        0.792   2.229   0.000   3.021
    8        0.797   2.235   0.000   3.032
    9        0.788   2.227   0.000   3.015
--------------------------------------------------
tot         13.582  32.753  47.534  93.869
 
    CHARGE:  cpu time    0.0536: real time    0.0537
    FORLOC:  cpu time    0.0009: real time    0.0009
    FORNL :  cpu time    0.1470: real time    0.1470
    STRESS:  cpu time    0.3810: real time    0.3810
    FORCOR:  cpu time    0.0116: real time    0.0116
    FORHAR:  cpu time    0.0031: real time    0.0031
    MIXING:  cpu time    0.0007: real time    0.0007
    OFIELD:  cpu time    0.0000: real time    0.0000

  FORCE on cell =-STRESS in cart. coord.  units (eV):
  Direction    XX          YY          ZZ          XY          YZ          ZX
  --------------------------------------------------------------------------------------
  Alpha Z   495.43391   495.43391   495.43391
  Ewald    1119.95023  1201.76516   730.81147  -106.92516  -200.15571  -290.87908
  Hartree  1327.93749  1203.40294  1920.29895   162.75694   304.68412   442.78639
  E(xc)    -368.73409  -368.49800  -369.85708    -0.30855    -0.57761    -0.83942
  Local    -296.70353   -11.01525 -1655.61070  -373.37243  -698.96170 -1015.77568
  n-local  -294.60413  -279.83953  -373.31938   -22.19580   -41.07000   -61.26263
  augment   256.64986   263.54790   223.83935    -9.13937   -16.94324   -24.57233
  Kinetic   944.71386   950.72474   920.12561    -7.53295   -13.97201   -22.42329
  Fock        0.00000     0.00000     0.00000     0.00000     0.00000     0.00000
  -------------------------------------------------------------------------------------
  Total    3185.52246  3458.29336  1888.07174  -356.49108  -667.35554  -969.84400
  in kB   56624.02694 61472.64656 33561.28434 -6336.78172-11862.53068-17239.39269
  external pressure =    50552.65 kB  Pullay stress =        0.00 kB


 VOLUME and BASIS-vectors are now :
 -----------------------------------------------------------------------------
  energy-cutoff  :      400.00
  volume of cell :       90.13
      direct lattice vectors                 reciprocal lattice vectors
     4.312714000  0.000000000  2.884800000     0.231872552 -0.088709574  0.000000000
     1.541026000  4.027994000  2.884800000     0.000000000  0.248262535  0.000000000
     0.000000000  0.000000000  5.188610000    -0.128918137 -0.088709381  0.192729845

  length of vectors
     5.188600301  5.188599795  5.188610000     0.248262500  0.248262535  0.248262026


 FORCES acting on ions
    electron-ion (+dipol)            ewald-force                    non-local-force                 convergence-correction
 -----------------------------------------------------------------------------------------------
   0.105E+04 -.257E+03 -.753E+03   -.793E+04 0.134E+04 0.404E+04   0.734E+02 -.133E+02 -.414E+02   -.164E-01 0.202E-02 0.618E-02
   -.672E+03 -.104E+04 0.452E+03   0.403E+04 0.678E+04 -.434E+04   -.393E+02 -.656E+02 0.380E+02   0.697E-02 0.126E-01 -.102E-01
   -.700E+03 0.107E+04 -.308E+03   0.424E+04 -.788E+04 0.933E+03   -.421E+02 0.733E+02 -.115E+02   0.734E-02 -.160E-01 0.149E-03
   0.505E+03 -.282E+03 -.151E+03   -.569E+03 0.791E+03 0.100E+04   0.126E+02 -.496E+02 -.798E+02   -.422E-02 -.136E-02 -.561E-02
   -.408E+03 -.279E+03 0.336E+03   0.115E+04 0.790E+03 0.841E+02   -.725E+02 -.507E+02 -.338E+02   -.210E-02 -.167E-02 -.663E-02
   -.797E+02 0.572E+03 -.153E+03   0.535E+03 -.814E+03 0.100E+04   -.430E+02 0.295E+02 -.791E+02   -.311E-02 -.346E-02 -.543E-02
   0.196E+03 0.477E+02 0.214E+03   -.200E+03 -.496E+03 -.100E+04   0.130E+01 0.159E+02 0.287E+02   0.842E-03 -.363E-04 0.485E-03
   0.693E+02 0.477E+02 0.282E+03   -.721E+03 -.496E+03 -.722E+03   0.231E+02 0.159E+02 0.170E+02   -.572E-04 -.479E-04 0.969E-03
   0.114E+03 0.166E+03 0.214E+03   -.535E+03 -.935E+01 -.100E+04   0.153E+02 -.446E+01 0.287E+02   0.254E-03 0.799E-03 0.491E-03
 -----------------------------------------------------------------------------------------------
   0.712E+02 0.490E+02 0.133E+03   -.114E-12 -.113E-11 -.114E-11   -.712E+02 -.490E+02 -.133E+03   -.104E-01 -.718E-02 -.195E-01
 
 
 POSITION                                       TOTAL-FORCE (eV/Angst)
 -----------------------------------------------------------------------------------
      2.51553      1.95990      5.34577     -6807.034568   1067.170125   3249.744305
      2.91846      2.14342      5.06307      3314.224815   5676.269013  -3851.145533
      2.92585      1.64914      5.24081      3499.310980  -6738.965604    613.571533
      0.98898      1.80587      3.81895       -51.115169    459.860227    770.594693
      2.62441      1.80587      2.94532       668.523896    460.449467    385.953890
      2.04003      0.27841      3.81895       411.867302   -212.058616    770.257677
      1.00143      1.53144      3.34746        -2.763121   -432.186770   -757.748159
      2.22559      1.53144      2.69352      -628.158152   -432.386820   -423.594664
      1.78817      0.38810      3.34746      -404.855982    151.848978   -757.633741
 -----------------------------------------------------------------------------------
    total drift:                               -0.002983     -0.002289     -0.005457


--------------------------------------------------------------------------------------------------------



  FREE ENERGIE OF THE ION-ELECTRON SYSTEM (eV)
  ---------------------------------------------------
  free  energy   TOTEN  =      3414.63181705 eV

  energy  without entropy=     3414.63213753  energy(sigma->0) =     3414.63197729
 


--------------------------------------------------------------------------------------------------------


    POTLOK:  cpu time    0.0139: real time    0.0139


--------------------------------------------------------------------------------------------------------


 Quasi-Newton relaxation of ions (Broydens 2nd method)
  g(Force)  = 0.173E+07   g(Stress)= 0.308E+05

 Reset! Starting new Quasi-Newton update for ions 


--------------------------------------------------------------------------------------------------------


    WAVPRE:  cpu time    0.0035: real time    0.0035
    FEWALD:  cpu time    0.0002: real time    0.0002
    GENKIN:  cpu time    0.0135: real time    0.0135
    ORTHCH:  cpu time    0.0646: real time    0.0646
     LOOP+:  cpu time   25.6861: real time   25.6962


--------------------------------------- Iteration      2(   1)  ---------------------------------------


    POTLOK:  cpu time    0.0117: real time    0.0117
