 vasp.5.4.4.18Apr17-6-g9f103f2a35 (build Apr 24 2023 09:55:28) complex          
  
 executed on             LinuxIFC date 2024.04.01  11:27:40
 running on   35 total cores
 distrk:  each k-point on   35 cores,    1 groups
 distr:  one band on NCORES_PER_BAND=   7 cores,    5 groups


--------------------------------------------------------------------------------------------------------


 INCAR:
 POTCAR:    PAW_PBE Li 17Jan2003                  
 POTCAR:    PAW_PBE Li 17Jan2003                  
   VRHFIN =Li: s1p0                                                             
   LEXCH  = PE                                                                  
   EATOM  =     5.3001 eV,    0.3895 Ry                                         
                                                                                
   TITEL  = PAW_PBE Li 17Jan2003                                                
   LULTRA =        F    use ultrasoft PP ?                                      
   IUNSCR =        1    unscreen: 0-lin 1-nonlin 2-no                           
   RPACOR =    1.500    partial core radius                                     
   POMASS =    7.010; ZVAL   =    1.000    mass and valenz                      
   RCORE  =    2.050    outmost cutoff radius                                   
   RWIGS  =    2.600; RWIGS  =    1.376    wigner-seitz radius (au A)           
   ENMAX  =  140.000; ENMIN  =  100.000 eV                                      
   ICORE  =        2    local potential                                         
   LCOR   =        T    correct aug charges                                     
   LPAW   =        T    paw PP                                                  
   EAUG   =  331.638                                                            
   DEXC   =    0.000                                                            
   RMAX   =    2.098    core radius for proj-oper                               
   RAUG   =    1.300    factor for augmentation sphere                          
   RDEP   =    2.094    radius for radial grids                                 
   RDEPT  =    1.810    core radius for aug-charge                              
                                                                                
   Atomic configuration                                                         
    4 entries                                                                   
     n  l   j            E        occ.                                          
     1  0  0.50       -51.8549   2.0000                                         
     2  0  0.50        -2.8742   1.0000                                         
     2  1  0.50        -1.3606   0.0000                                         
     3  2  1.50        -1.3606   0.0000                                         
   Description                                                                  
     l       E           TYP  RCUT    TYP  RCUT                                 
     0     -2.8742052     23  2.050                                             
     0     27.2116520     23  2.050                                             
     1     -1.3605826     23  2.050                                             
     2     -1.3605826     23  2.050                                             
  local pseudopotential read in
  partial core-charges read in
  partial kinetic energy density read in
  atomic valenz-charges read in
  non local Contribution for L=           0  read in
    real space projection operators read in
  non local Contribution for L=           0  read in
    real space projection operators read in
  non local Contribution for L=           1  read in
    real space projection operators read in
    PAW grid and wavefunctions read in
 
   number of l-projection  operators is LMAX  =           3
   number of lm-projection operators is LMMAX =           5
 
  PAW_PBE Li 17Jan2003                  :
 energy of atom  1       EATOM=   -5.3001
 kinetic energy error for atom=    0.0000 (will be added to EATOM!!)
 
 
 POSCAR: Li2                                     
  positions in direct lattice
  No initial velocities read in
 exchange correlation table for  LEXCH =        8
   RHO(1)=    0.500       N(1)  =     2000
   RHO(2)=  100.500       N(2)  =     4000
 


--------------------------------------------------------------------------------------------------------


 ion  position               nearest neighbor table
   1  0.000  0.000  0.000-   2 2.98   2 2.98   2 2.98   2 2.98   2 2.98   2 2.98   2 2.98   2 2.98

   2  0.500  0.500  0.500-   1 2.98   1 2.98   1 2.98   1 2.98   1 2.98   1 2.98   1 2.98   1 2.98

 
  LATTYP: Found a simple cubic cell.
 ALAT       =     3.4393124532
  
  Lattice vectors:
  
 A1 = (   3.4393124532,   0.0000000000,   0.0000000000)
 A2 = (   0.0000000000,   3.4393124532,   0.0000000000)
 A3 = (   0.0000000000,   0.0000000000,   3.4393124532)


Analysis of symmetry for initial positions (statically):
=====================================================================
 Subroutine PRICEL returns following result:
 
  LATTYP: Found a body centered cubic cell.
 ALAT       =     3.4393124532
  
  Lattice vectors:
  
 A1 = (   1.7196562266,   1.7196562266,   1.7196562266)
 A2 = (   1.7196562266,  -1.7196562266,  -1.7196562266)
 A3 = (  -1.7196562266,   1.7196562266,  -1.7196562266)
 
   2 primitive cells build up your supercell.
 

 Routine SETGRP: Setting up the symmetry group for a 
 simple cubic supercell.


 Subroutine GETGRP returns: Found 48 space group operations
 (whereof 48 operations were pure point group operations)
 out of a pool of 48 trial point group operations.


The static configuration has the point symmetry O_h .


Analysis of symmetry for dynamics (positions and initial velocities):
=====================================================================
 Subroutine PRICEL returns following result:
 
  LATTYP: Found a body centered cubic cell.
 ALAT       =     3.4393124532
  
  Lattice vectors:
  
 A1 = (   1.7196562266,   1.7196562266,   1.7196562266)
 A2 = (   1.7196562266,  -1.7196562266,  -1.7196562266)
 A3 = (  -1.7196562266,   1.7196562266,  -1.7196562266)
 
   2 primitive cells build up your supercell.
 

 Routine SETGRP: Setting up the symmetry group for a 
 simple cubic supercell.


 Subroutine GETGRP returns: Found 48 space group operations
 (whereof 48 operations were pure point group operations)
 out of a pool of 48 trial point group operations.


The dynamic configuration has the point symmetry O_h .


 Subroutine INISYM returns: Found 48 space group operations
 (whereof 48 operations are pure point group operations),
 and found     2 'primitive' translations

 
 
 KPOINTS: Automatic mesh                          

Automatic generation of k-mesh.
 generate k-points for:    9    9    9
Space group operators:
 irot       det(A)        alpha          n_x          n_y          n_z        tau_x        tau_y        tau_z
    1     1.000000     0.000000     1.000000     0.000000     0.000000     0.000000     0.000000     0.000000
    2    -1.000000     0.000000     1.000000     0.000000     0.000000     0.000000     0.000000     0.000000
    3     1.000000   120.000000    -0.577350    -0.577350    -0.577350     0.000000     0.000000     0.000000
    4    -1.000000   120.000000    -0.577350    -0.577350    -0.577350     0.000000     0.000000     0.000000
    5     1.000000   120.000000     0.577350     0.577350     0.577350     0.000000     0.000000     0.000000
    6    -1.000000   120.000000     0.577350     0.577350     0.577350     0.000000     0.000000     0.000000
    7     1.000000    90.000000     0.000000    -0.000000    -1.000000     0.000000     0.000000     0.000000
    8    -1.000000    90.000000     0.000000    -0.000000    -1.000000     0.000000     0.000000     0.000000
    9     1.000000   180.000000     0.000000    -0.707107    -0.707107     0.000000     0.000000     0.000000
   10    -1.000000   180.000000     0.000000    -0.707107    -0.707107     0.000000     0.000000     0.000000
   11     1.000000    90.000000     0.000000     1.000000     0.000000     0.000000     0.000000     0.000000
   12    -1.000000    90.000000     0.000000     1.000000     0.000000     0.000000     0.000000     0.000000
   13     1.000000   180.000000    -0.000000    -0.000000     1.000000     0.000000     0.000000     0.000000
   14    -1.000000   180.000000    -0.000000    -0.000000     1.000000     0.000000     0.000000     0.000000
   15     1.000000   120.000000    -0.577350     0.577350     0.577350     0.000000     0.000000     0.000000
   16    -1.000000   120.000000    -0.577350     0.577350     0.577350     0.000000     0.000000     0.000000
   17     1.000000   120.000000    -0.577350     0.577350    -0.577350     0.000000     0.000000     0.000000
   18    -1.000000   120.000000    -0.577350     0.577350    -0.577350     0.000000     0.000000     0.000000
   19     1.000000    90.000000    -0.000000    -0.000000     1.000000     0.000000     0.000000     0.000000
   20    -1.000000    90.000000    -0.000000    -0.000000     1.000000     0.000000     0.000000     0.000000
   21     1.000000    90.000000    -1.000000     0.000000    -0.000000     0.000000     0.000000     0.000000
   22    -1.000000    90.000000    -1.000000     0.000000    -0.000000     0.000000     0.000000     0.000000
   23     1.000000   180.000000    -0.707107     0.000000    -0.707107     0.000000     0.000000     0.000000
   24    -1.000000   180.000000    -0.707107     0.000000    -0.707107     0.000000     0.000000     0.000000
   25     1.000000   120.000000     0.577350    -0.577350     0.577350     0.000000     0.000000     0.000000
   26    -1.000000   120.000000     0.577350    -0.577350     0.577350     0.000000     0.000000     0.000000
   27     1.000000   120.000000    -0.577350    -0.577350     0.577350     0.000000     0.000000     0.000000
   28    -1.000000   120.000000    -0.577350    -0.577350     0.577350     0.000000     0.000000     0.000000
   29     1.000000   180.000000     1.000000    -0.000000     0.000000     0.000000     0.000000     0.000000
   30    -1.000000   180.000000     1.000000    -0.000000     0.000000     0.000000     0.000000     0.000000
   31     1.000000    90.000000    -0.000000    -1.000000     0.000000     0.000000     0.000000     0.000000
   32    -1.000000    90.000000    -0.000000    -1.000000     0.000000     0.000000     0.000000     0.000000
   33     1.000000   180.000000     0.707107     0.707107     0.000000     0.000000     0.000000     0.000000
   34    -1.000000   180.000000     0.707107     0.707107     0.000000     0.000000     0.000000     0.000000
   35     1.000000    90.000000     1.000000    -0.000000    -0.000000     0.000000     0.000000     0.000000
   36    -1.000000    90.000000     1.000000    -0.000000    -0.000000     0.000000     0.000000     0.000000
   37     1.000000   120.000000     0.577350    -0.577350    -0.577350     0.000000     0.000000     0.000000
   38    -1.000000   120.000000     0.577350    -0.577350    -0.577350     0.000000     0.000000     0.000000
   39     1.000000   180.000000     0.000000     1.000000     0.000000     0.000000     0.000000     0.000000
   40    -1.000000   180.000000     0.000000     1.000000     0.000000     0.000000     0.000000     0.000000
   41     1.000000   120.000000     0.577350     0.577350    -0.577350     0.000000     0.000000     0.000000
   42    -1.000000   120.000000     0.577350     0.577350    -0.577350     0.000000     0.000000     0.000000
   43     1.000000   180.000000    -0.000000    -0.707107     0.707107     0.000000     0.000000     0.000000
   44    -1.000000   180.000000    -0.000000    -0.707107     0.707107     0.000000     0.000000     0.000000
   45     1.000000   180.000000     0.707107    -0.707107     0.000000     0.000000     0.000000     0.000000
   46    -1.000000   180.000000     0.707107    -0.707107     0.000000     0.000000     0.000000     0.000000
   47     1.000000   180.000000     0.707107    -0.000000    -0.707107     0.000000     0.000000     0.000000
   48    -1.000000   180.000000     0.707107    -0.000000    -0.707107     0.000000     0.000000     0.000000
 
 Subroutine IBZKPT returns following result:
 ===========================================
 
 Found     35 irreducible k-points:
 
 Following reciprocal coordinates:
            Coordinates               Weight
  0.000000  0.000000  0.000000      1.000000
  0.111111  0.000000  0.000000      6.000000
  0.222222  0.000000  0.000000      6.000000
  0.333333  0.000000  0.000000      6.000000
  0.444444  0.000000  0.000000      6.000000
  0.111111  0.111111  0.000000     12.000000
  0.222222  0.111111  0.000000     24.000000
  0.333333  0.111111  0.000000     24.000000
  0.444444  0.111111  0.000000     24.000000
  0.222222  0.222222  0.000000     12.000000
  0.333333  0.222222  0.000000     24.000000
  0.444444  0.222222  0.000000     24.000000
  0.333333  0.333333  0.000000     12.000000
  0.444444  0.333333  0.000000     24.000000
  0.444444  0.444444  0.000000     12.000000
  0.111111  0.111111  0.111111      8.000000
  0.222222  0.111111  0.111111     24.000000
  0.333333  0.111111  0.111111     24.000000
  0.444444  0.111111  0.111111     24.000000
  0.222222  0.222222  0.111111     24.000000
  0.333333  0.222222  0.111111     48.000000
  0.444444  0.222222  0.111111     48.000000
  0.333333  0.333333  0.111111     24.000000
  0.444444  0.333333  0.111111     48.000000
  0.444444  0.444444  0.111111     24.000000
  0.222222  0.222222  0.222222      8.000000
  0.333333  0.222222  0.222222     24.000000
  0.444444  0.222222  0.222222     24.000000
  0.333333  0.333333  0.222222     24.000000
  0.444444  0.333333  0.222222     48.000000
  0.444444  0.444444  0.222222     24.000000
  0.333333  0.333333  0.333333      8.000000
  0.444444  0.333333  0.333333     24.000000
  0.444444  0.444444  0.333333     24.000000
  0.444444  0.444444  0.444444      8.000000
 
 Following cartesian coordinates:
            Coordinates               Weight
  0.000000  0.000000  0.000000      1.000000
  0.032306 -0.000000  0.000000      6.000000
  0.064612 -0.000000  0.000000      6.000000
  0.096919 -0.000000  0.000000      6.000000
  0.129225 -0.000000  0.000000      6.000000
  0.032306  0.032306  0.000000     12.000000
  0.064612  0.032306  0.000000     24.000000
  0.096919  0.032306  0.000000     24.000000
  0.129225  0.032306  0.000000     24.000000
  0.064612  0.064612  0.000000     12.000000
  0.096919  0.064612  0.000000     24.000000
  0.129225  0.064612  0.000000     24.000000
  0.096919  0.096919  0.000000     12.000000
  0.129225  0.096919  0.000000     24.000000
  0.129225  0.129225  0.000000     12.000000
  0.032306  0.032306  0.032306      8.000000
  0.064612  0.032306  0.032306     24.000000
  0.096919  0.032306  0.032306     24.000000
  0.129225  0.032306  0.032306     24.000000
  0.064612  0.064612  0.032306     24.000000
  0.096919  0.064612  0.032306     48.000000
  0.129225  0.064612  0.032306     48.000000
  0.096919  0.096919  0.032306     24.000000
  0.129225  0.096919  0.032306     48.000000
  0.129225  0.129225  0.032306     24.000000
  0.064612  0.064612  0.064612      8.000000
  0.096919  0.064612  0.064612     24.000000
  0.129225  0.064612  0.064612     24.000000
  0.096919  0.096919  0.064612     24.000000
  0.129225  0.096919  0.064612     48.000000
  0.129225  0.129225  0.064612     24.000000
  0.096919  0.096919  0.096919      8.000000
  0.129225  0.096919  0.096919     24.000000
  0.129225  0.129225  0.096919     24.000000
  0.129225  0.129225  0.129225      8.000000
 


--------------------------------------------------------------------------------------------------------




 Dimension of arrays:
   k-points           NKPTS =     35   k-points in BZ     NKDIM =     35   number of bands    NBANDS=      5
   number of dos      NEDOS =    301   number of ions     NIONS =      2
   non local maximal  LDIM  =      3   non local SUM 2l+1 LMDIM =      5
   total plane-waves  NPLWV =  13824
   max r-space proj   IRMAX =      1   max aug-charges    IRDMAX=  11071
   dimension x,y,z NGX =    24 NGY =   24 NGZ =   24
   dimension x,y,z NGXF=    48 NGYF=   48 NGZF=   48
   support grid    NGXF=    48 NGYF=   48 NGZF=   48
   ions per type =               2
   NGX,Y,Z   is equivalent  to a cutoff of  11.60, 11.60, 11.60 a.u.
   NGXF,Y,Z  is equivalent  to a cutoff of  23.20, 23.20, 23.20 a.u.

 SYSTEM =  DFT routine                             
 POSCAR =  Li2                                     

 Startparameter for this run:
   NWRITE =      2    write-flag & timer
   PREC   = acc       normal or accurate (medium, high low for compatibility)
   ISTART =      0    job   : 0-new  1-cont  2-samecut
   ICHARG =      2    charge: 1-file 2-atom 10-const
   ISPIN  =      1    spin polarized calculation?
   LNONCOLLINEAR =      F non collinear calculations
   LSORBIT =      F    spin-orbit coupling
   INIWAV =      1    electr: 0-lowe 1-rand  2-diag
   LASPH  =      F    aspherical Exc in radial PAW
   METAGGA=      F    non-selfconsistent MetaGGA calc.

 Electronic Relaxation 1
   ENCUT  =  400.0 eV  29.40 Ry    5.42 a.u.   5.61  5.61  5.61*2*pi/ulx,y,z
   ENINI  =  400.0     initial cutoff
   ENAUG  =  331.6 eV  augmentation charge cutoff
   NELM   =    100;   NELMIN=  2; NELMDL= -5     # of ELM steps 
   EDIFF  = 0.1E-04   stopping-criterion for ELM
   LREAL  =      F    real-space projection
   NLSPLINE    = F    spline interpolate recip. space projectors
   LCOMPAT=      F    compatible to vasp.4.4
   GGA_COMPAT  = T    GGA compatible to vasp.4.4-vasp.4.6
   LMAXPAW     = -100 max onsite density
   LMAXMIX     =    2 max onsite mixed and CHGCAR
   VOSKOWN=      0    Vosko Wilk Nusair interpolation
   ROPT   =    0.00000
 Ionic relaxation
   EDIFFG = 0.1E-03   stopping-criterion for IOM
   NSW    =     10    number of steps for IOM
   NBLOCK =      1;   KBLOCK =     10    inner block; outer block 
   IBRION =      1    ionic relax: 0-MD 1-quasi-New 2-CG
   NFREE  =      0    steps in history (QN), initial steepest desc. (CG)
   ISIF   =      3    stress and relaxation
   IWAVPR =     11    prediction:  0-non 1-charg 2-wave 3-comb
   ISYM   =      2    0-nonsym 1-usesym 2-fastsym
   LCORR  =      T    Harris-Foulkes like correction to forces

   POTIM  = 0.1000    time-step for ionic-motion
   TEIN   =    0.0    initial temperature
   TEBEG  =    0.0;   TEEND  =   0.0 temperature during run
   SMASS  =  -3.00    Nose mass-parameter (am)
   estimated Nose-frequenzy (Omega)   =  0.10E-29 period in steps =****** mass=  -0.270E-27a.u.
   SCALEE = 1.0000    scale energy and forces
   NPACO  =    256;   APACO  = 16.0  distance and # of slots for P.C.
   PSTRESS=    0.0 pullay stress

  Mass of Ions in am
   POMASS =   7.01
  Ionic Valenz
   ZVAL   =   1.00
  Atomic Wigner-Seitz radii
   RWIGS  =  -1.00
  virtual crystal weights 
   VCA    =   1.00
   NELECT =       2.0000    total number of electrons
   NUPDOWN=      -1.0000    fix difference up-down

 DOS related values:
   EMIN   =  10.00;   EMAX   =-10.00  energy-range for DOS
   EFERMI =   0.00
   ISMEAR =     0;   SIGMA  =   0.01  broadening in eV -4-tet -1-fermi 0-gaus

 Electronic relaxation 2 (details)
   IALGO  =     38    algorithm
   LDIAG  =      T    sub-space diagonalisation (order eigenvalues)
   LSUBROT=      F    optimize rotation matrix (better conditioning)
   TURBO    =      0    0=normal 1=particle mesh
   IRESTART =      0    0=no restart 2=restart with 2 vectors
   NREBOOT  =      0    no. of reboots
   NMIN     =      0    reboot dimension
   EREF     =   0.00    reference energy to select bands
   IMIX   =      4    mixing-type and parameters
     AMIX     =   0.40;   BMIX     =  1.00
     AMIX_MAG =   1.60;   BMIX_MAG =  1.00
     AMIN     =   0.10
     WC   =   100.;   INIMIX=   1;  MIXPRE=   1;  MAXMIX= -45

 Intra band minimization:
   WEIMIN = 0.0010     energy-eigenvalue tresh-hold
   EBREAK =  0.50E-06  absolut break condition
   DEPER  =   0.30     relativ break condition  

   TIME   =   0.40     timestep for ELM

  volume/ion in A,a.u.               =      20.34       137.27
  Fermi-wavevector in a.u.,A,eV,Ry     =   0.599717  1.133301  4.893482  0.359661
  Thomas-Fermi vector in A             =   1.651304
 
 Write flags
   LWAVE        =      F    write WAVECAR
   LDOWNSAMPLE  =      F    k-point downsampling of WAVECAR
   LCHARG       =      F    write CHGCAR
   LVTOT        =      F    write LOCPOT, total local potential
   LVHAR        =      F    write LOCPOT, Hartree potential only
   LELF         =      F    write electronic localiz. function (ELF)
   LORBIT       =     10    0 simple, 1 ext, 2 COOP (PROOUT), +10 PAW based schemes


 Dipole corrections
   LMONO  =      F    monopole corrections only (constant potential shift)
   LDIPOL =      F    correct potential (dipole corrections)
   IDIPOL =      0    1-x, 2-y, 3-z, 4-all directions 
   EPSILON=  1.0000000 bulk dielectric constant

 Exchange correlation treatment:
   GGA     =    --    GGA type
   LEXCH   =     8    internal setting for exchange type
   VOSKOWN=      0    Vosko Wilk Nusair interpolation
   LHFCALC =     F    Hartree Fock is set to
   LHFONE  =     F    Hartree Fock one center treatment
   AEXX    =    0.0000 exact exchange contribution

 Linear response parameters
   LEPSILON=     F    determine dielectric tensor
   LRPA    =     F    only Hartree local field effects (RPA)
   LNABLA  =     F    use nabla operator in PAW spheres
   LVEL    =     F    velocity operator in full k-point grid
   LINTERFAST=   F  fast interpolation
   KINTER  =     0    interpolate to denser k-point grid
   CSHIFT  =0.1000    complex shift for real part using Kramers Kronig
   OMEGAMAX=  -1.0    maximum frequency
   DEG_THRESHOLD= 0.2000000E-02 threshold for treating states as degnerate
   RTIME   =   -0.100 relaxation time in fs
  (WPLASMAI=    0.000 imaginary part of plasma frequency in eV, 0.658/RTIME)
   DFIELD  = 0.0000000 0.0000000 0.0000000 field for delta impulse in time
 
 Orbital magnetization related:
   ORBITALMAG=     F  switch on orbital magnetization
   LCHIMAG   =     F  perturbation theory with respect to B field
   DQ        =  0.001000  dq finite difference perturbation B field
   LLRAUG    =     F  two centre corrections for induced B field



--------------------------------------------------------------------------------------------------------


 quasi-Newton-method for relaxation of ions
 charge density and potential will be updated during run
 non-spin polarized calculation
 Variant of blocked Davidson
 Davidson routine will perform the subspace rotation
 perform sub-space diagonalisation
    after iterative eigenvector-optimisation
 modified Broyden-mixing scheme, WC =      100.0
 initial mixing is a Kerker type mixing with AMIX =  0.4000 and BMIX =      1.0000
 Hartree-type preconditioning will be used
 using additional bands            4
 reciprocal scheme for non local part
 use partial core corrections
 calculate Harris-corrections to forces 
   (improved forces if not selfconsistent)
 use gradient corrections 
 use of overlap-Matrix (Vanderbilt PP)
 Gauss-broadening in eV      SIGMA  =   0.01


--------------------------------------------------------------------------------------------------------


  energy-cutoff  :      400.00
  volume of cell :       40.68
      direct lattice vectors                 reciprocal lattice vectors
     3.439312453  0.000000000  0.000000000     0.290755787 -0.000000000  0.000000000
     0.000000000  3.439312453  0.000000000     0.000000000  0.290755787  0.000000000
     0.000000000  0.000000000  3.439312453    -0.000000000 -0.000000000  0.290755787

  length of vectors
     3.439312453  3.439312453  3.439312453     0.290755787  0.290755787  0.290755787


 
 k-points in units of 2pi/SCALE and weight: Automatic mesh                          
   0.00000000  0.00000000  0.00000000       0.001
   0.03230620 -0.00000000  0.00000000       0.008
   0.06461240 -0.00000000  0.00000000       0.008
   0.09691860 -0.00000000  0.00000000       0.008
   0.12922479 -0.00000000  0.00000000       0.008
   0.03230620  0.03230620  0.00000000       0.016
   0.06461240  0.03230620  0.00000000       0.033
   0.09691860  0.03230620  0.00000000       0.033
   0.12922479  0.03230620  0.00000000       0.033
   0.06461240  0.06461240  0.00000000       0.016
   0.09691860  0.06461240  0.00000000       0.033
   0.12922479  0.06461240  0.00000000       0.033
   0.09691860  0.09691860  0.00000000       0.016
   0.12922479  0.09691860  0.00000000       0.033
   0.12922479  0.12922479  0.00000000       0.016
   0.03230620  0.03230620  0.03230620       0.011
   0.06461240  0.03230620  0.03230620       0.033
   0.09691860  0.03230620  0.03230620       0.033
   0.12922479  0.03230620  0.03230620       0.033
   0.06461240  0.06461240  0.03230620       0.033
   0.09691860  0.06461240  0.03230620       0.066
   0.12922479  0.06461240  0.03230620       0.066
   0.09691860  0.09691860  0.03230620       0.033
   0.12922479  0.09691860  0.03230620       0.066
   0.12922479  0.12922479  0.03230620       0.033
   0.06461240  0.06461240  0.06461240       0.011
   0.09691860  0.06461240  0.06461240       0.033
   0.12922479  0.06461240  0.06461240       0.033
   0.09691860  0.09691860  0.06461240       0.033
   0.12922479  0.09691860  0.06461240       0.066
   0.12922479  0.12922479  0.06461240       0.033
   0.09691860  0.09691860  0.09691860       0.011
   0.12922479  0.09691860  0.09691860       0.033
   0.12922479  0.12922479  0.09691860       0.033
   0.12922479  0.12922479  0.12922479       0.011
 
 k-points in reciprocal lattice and weights: Automatic mesh                          
   0.00000000  0.00000000  0.00000000       0.001
   0.11111111  0.00000000  0.00000000       0.008
   0.22222222  0.00000000  0.00000000       0.008
   0.33333333  0.00000000  0.00000000       0.008
   0.44444444  0.00000000  0.00000000       0.008
   0.11111111  0.11111111  0.00000000       0.016
   0.22222222  0.11111111  0.00000000       0.033
   0.33333333  0.11111111  0.00000000       0.033
   0.44444444  0.11111111  0.00000000       0.033
   0.22222222  0.22222222  0.00000000       0.016
   0.33333333  0.22222222  0.00000000       0.033
   0.44444444  0.22222222  0.00000000       0.033
   0.33333333  0.33333333  0.00000000       0.016
   0.44444444  0.33333333  0.00000000       0.033
   0.44444444  0.44444444  0.00000000       0.016
   0.11111111  0.11111111  0.11111111       0.011
   0.22222222  0.11111111  0.11111111       0.033
   0.33333333  0.11111111  0.11111111       0.033
   0.44444444  0.11111111  0.11111111       0.033
   0.22222222  0.22222222  0.11111111       0.033
   0.33333333  0.22222222  0.11111111       0.066
   0.44444444  0.22222222  0.11111111       0.066
   0.33333333  0.33333333  0.11111111       0.033
   0.44444444  0.33333333  0.11111111       0.066
   0.44444444  0.44444444  0.11111111       0.033
   0.22222222  0.22222222  0.22222222       0.011
   0.33333333  0.22222222  0.22222222       0.033
   0.44444444  0.22222222  0.22222222       0.033
   0.33333333  0.33333333  0.22222222       0.033
   0.44444444  0.33333333  0.22222222       0.066
   0.44444444  0.44444444  0.22222222       0.033
   0.33333333  0.33333333  0.33333333       0.011
   0.44444444  0.33333333  0.33333333       0.033
   0.44444444  0.44444444  0.33333333       0.033
   0.44444444  0.44444444  0.44444444       0.011
 
 position of ions in fractional coordinates (direct lattice) 
   0.00000000  0.00000000  0.00000000
   0.50000000  0.50000000  0.50000000
 
 position of ions in cartesian coordinates  (Angst):
   0.00000000  0.00000000  0.00000000
   1.71965623  1.71965623  1.71965623
 


--------------------------------------------------------------------------------------------------------


 k-point  1 :   0.0000 0.0000 0.0000  plane waves:     739
 k-point  2 :   0.1111 0.0000 0.0000  plane waves:     743
 k-point  3 :   0.2222 0.0000 0.0000  plane waves:     747
 k-point  4 :   0.3333 0.0000 0.0000  plane waves:     743
 k-point  5 :   0.4444 0.0000 0.0000  plane waves:     740
 k-point  6 :   0.1111 0.1111 0.0000  plane waves:     742
 k-point  7 :   0.2222 0.1111 0.0000  plane waves:     741
 k-point  8 :   0.3333 0.1111 0.0000  plane waves:     747
 k-point  9 :   0.4444 0.1111 0.0000  plane waves:     746
 k-point 10 :   0.2222 0.2222 0.0000  plane waves:     742
 k-point 11 :   0.3333 0.2222 0.0000  plane waves:     742
 k-point 12 :   0.4444 0.2222 0.0000  plane waves:     738
 k-point 13 :   0.3333 0.3333 0.0000  plane waves:     748
 k-point 14 :   0.4444 0.3333 0.0000  plane waves:     736
 k-point 15 :   0.4444 0.4444 0.0000  plane waves:     744
 k-point 16 :   0.1111 0.1111 0.1111  plane waves:     742
 k-point 17 :   0.2222 0.1111 0.1111  plane waves:     737
 k-point 18 :   0.3333 0.1111 0.1111  plane waves:     736
 k-point 19 :   0.4444 0.1111 0.1111  plane waves:     746
 k-point 20 :   0.2222 0.2222 0.1111  plane waves:     738
 k-point 21 :   0.3333 0.2222 0.1111  plane waves:     740
 k-point 22 :   0.4444 0.2222 0.1111  plane waves:     745
 k-point 23 :   0.3333 0.3333 0.1111  plane waves:     742
 k-point 24 :   0.4444 0.3333 0.1111  plane waves:     742
 k-point 25 :   0.4444 0.4444 0.1111  plane waves:     736
 k-point 26 :   0.2222 0.2222 0.2222  plane waves:     742
 k-point 27 :   0.3333 0.2222 0.2222  plane waves:     742
 k-point 28 :   0.4444 0.2222 0.2222  plane waves:     743
 k-point 29 :   0.3333 0.3333 0.2222  plane waves:     736
 k-point 30 :   0.4444 0.3333 0.2222  plane waves:     732
 k-point 31 :   0.4444 0.4444 0.2222  plane waves:     736
 k-point 32 :   0.3333 0.3333 0.3333  plane waves:     729
 k-point 33 :   0.4444 0.3333 0.3333  plane waves:     734
 k-point 34 :   0.4444 0.4444 0.3333  plane waves:     724
 k-point 35 :   0.4444 0.4444 0.4444  plane waves:     714

 maximum and minimum number of plane-waves per node :       124       90

 maximum number of plane-waves:       748
 maximum index in each direction: 
   IXMAX=    5   IYMAX=    5   IZMAX=    5
   IXMIN=   -6   IYMIN=   -6   IZMIN=   -6


 parallel 3D FFT for wavefunctions:
    minimum data exchange during FFTs selected (reduces bandwidth)
 parallel 3D FFT for charge:
    minimum data exchange during FFTs selected (reduces bandwidth)


 total amount of memory used by VASP MPI-rank0    30786. kBytes
=======================================================================

   base      :      30000. kBytes
   nonl-proj :        171. kBytes
   fftplans  :        223. kBytes
   grid      :        321. kBytes
   one-center:          1. kBytes
   wavefun   :         70. kBytes
 
     INWAV:  cpu time    0.0000: real time    0.0000
 Broyden mixing: mesh for mixing (old mesh)
   NGX = 11   NGY = 11   NGZ = 11
  (NGX  = 48   NGY  = 48   NGZ  = 48)
  gives a total of   1331 points

 initial charge density was supplied:
 charge density of overlapping atoms calculated
 number of electron       2.0000000 magnetization 
 keeping initial charge density in first step


--------------------------------------------------------------------------------------------------------


 Maximum index for augmentation-charges          642 (set IRDMAX)


--------------------------------------------------------------------------------------------------------


 First call to EWALD:  gamma=   0.515
 Maximum number of real-space cells 3x 3x 3
 Maximum number of reciprocal cells 3x 3x 3

    FEWALD:  cpu time    0.0012: real time    0.0012


--------------------------------------- Iteration      1(   1)  ---------------------------------------


    POTLOK:  cpu time    0.0101: real time    0.0101
    SETDIJ:  cpu time    0.0017: real time    0.0017
     EDDAV:  cpu time    0.0541: real time    0.0541
       DOS:  cpu time    0.0004: real time    0.0004
    --------------------------------------------
      LOOP:  cpu time    0.0663: real time    0.0664

 eigenvalue-minimisations  :   370
 total energy-change (2. order) :-0.3190519E+01  (-0.5010368E+02)
 number of electron       2.0000000 magnetization 
 augmentation part        2.0000000 magnetization 

 Free energy of the ion-electron system (eV)
  ---------------------------------------------------
  alpha Z        PSCENC =         0.25757056
  Ewald energy   TEWEN  =       -15.23682077
  -Hartree energ DENC   =        -0.00902319
  -exchange      EXHF   =         0.00000000
  -V(xc)+E(xc)   XCENC  =        -8.55173435
  PAW double counting   =        15.32523118       -4.20845459
  entropy T*S    EENTRO =        -0.00007148
  eigenvalues    EBANDS =        -1.36739402
  atomic energy  EATOM  =        10.60017774
  Solvation  Ediel_sol  =         0.00000000
  ---------------------------------------------------
  free energy    TOTEN  =        -3.19051891 eV

  energy without entropy =       -3.19044744  energy(sigma->0) =       -3.19048317


--------------------------------------------------------------------------------------------------------




--------------------------------------- Iteration      1(   2)  ---------------------------------------


     EDDAV:  cpu time    0.0613: real time    0.0613
       DOS:  cpu time    0.0003: real time    0.0003
    --------------------------------------------
      LOOP:  cpu time    0.0616: real time    0.0616

 eigenvalue-minimisations  :   475
 total energy-change (2. order) :-0.6005867E+00  (-0.5370246E+00)
 number of electron       2.0000000 magnetization 
 augmentation part        2.0000000 magnetization 

 Free energy of the ion-electron system (eV)
  ---------------------------------------------------
  alpha Z        PSCENC =         0.25757056
  Ewald energy   TEWEN  =       -15.23682077
  -Hartree energ DENC   =        -0.00902319
  -exchange      EXHF   =         0.00000000
  -V(xc)+E(xc)   XCENC  =        -8.55173435
  PAW double counting   =        15.32523118       -4.20845459
  entropy T*S    EENTRO =        -0.00036946
  eigenvalues    EBANDS =        -1.96768274
  atomic energy  EATOM  =        10.60017774
  Solvation  Ediel_sol  =         0.00000000
  ---------------------------------------------------
  free energy    TOTEN  =        -3.79110562 eV

  energy without entropy =       -3.79073616  energy(sigma->0) =       -3.79092089


--------------------------------------------------------------------------------------------------------




--------------------------------------- Iteration      1(   3)  ---------------------------------------


     EDDAV:  cpu time    0.0590: real time    0.0590
       DOS:  cpu time    0.0003: real time    0.0003
    --------------------------------------------
      LOOP:  cpu time    0.0594: real time    0.0594

 eigenvalue-minimisations  :   460
 total energy-change (2. order) :-0.7856927E-02  (-0.7856927E-02)
 number of electron       2.0000000 magnetization 
 augmentation part        2.0000000 magnetization 

 Free energy of the ion-electron system (eV)
  ---------------------------------------------------
  alpha Z        PSCENC =         0.25757056
  Ewald energy   TEWEN  =       -15.23682077
  -Hartree energ DENC   =        -0.00902319
  -exchange      EXHF   =         0.00000000
  -V(xc)+E(xc)   XCENC  =        -8.55173435
  PAW double counting   =        15.32523118       -4.20845459
  entropy T*S    EENTRO =        -0.00036946
  eigenvalues    EBANDS =        -1.97553966
  atomic energy  EATOM  =        10.60017774
  Solvation  Ediel_sol  =         0.00000000
  ---------------------------------------------------
  free energy    TOTEN  =        -3.79896254 eV

  energy without entropy =       -3.79859308  energy(sigma->0) =       -3.79877781


--------------------------------------------------------------------------------------------------------




--------------------------------------- Iteration      1(   4)  ---------------------------------------


     EDDAV:  cpu time    0.0648: real time    0.0648
       DOS:  cpu time    0.0004: real time    0.0004
    --------------------------------------------
      LOOP:  cpu time    0.0651: real time    0.0651

 eigenvalue-minimisations  :   510
 total energy-change (2. order) :-0.4011621E-04  (-0.4011622E-04)
 number of electron       2.0000000 magnetization 
 augmentation part        2.0000000 magnetization 

 Free energy of the ion-electron system (eV)
  ---------------------------------------------------
  alpha Z        PSCENC =         0.25757056
  Ewald energy   TEWEN  =       -15.23682077
  -Hartree energ DENC   =        -0.00902319
  -exchange      EXHF   =         0.00000000
  -V(xc)+E(xc)   XCENC  =        -8.55173435
  PAW double counting   =        15.32523118       -4.20845459
  entropy T*S    EENTRO =        -0.00036946
  eigenvalues    EBANDS =        -1.97557978
  atomic energy  EATOM  =        10.60017774
  Solvation  Ediel_sol  =         0.00000000
  ---------------------------------------------------
  free energy    TOTEN  =        -3.79900266 eV

  energy without entropy =       -3.79863320  energy(sigma->0) =       -3.79881793


--------------------------------------------------------------------------------------------------------




--------------------------------------- Iteration      1(   5)  ---------------------------------------


     EDDAV:  cpu time    0.0600: real time    0.0600
       DOS:  cpu time    0.0004: real time    0.0004
    CHARGE:  cpu time    0.0060: real time    0.0060
    MIXING:  cpu time    0.0004: real time    0.0004
    --------------------------------------------
      LOOP:  cpu time    0.0667: real time    0.0667

 eigenvalue-minimisations  :   470
 total energy-change (2. order) :-0.2210102E-06  (-0.2210045E-06)
 number of electron       2.0000000 magnetization 
 augmentation part        0.0153303 magnetization 

 Broyden mixing:
  rms(total) = 0.19222E-01    rms(broyden)= 0.19222E-01
  rms(prec ) = 0.59363E-01
  weight for this iteration     100.00

 Free energy of the ion-electron system (eV)
  ---------------------------------------------------
  alpha Z        PSCENC =         0.25757056
  Ewald energy   TEWEN  =       -15.23682077
  -Hartree energ DENC   =        -0.00902319
  -exchange      EXHF   =         0.00000000
  -V(xc)+E(xc)   XCENC  =        -8.55173435
  PAW double counting   =        15.32523118       -4.20845459
  entropy T*S    EENTRO =        -0.00036946
  eigenvalues    EBANDS =        -1.97558000
  atomic energy  EATOM  =        10.60017774
  Solvation  Ediel_sol  =         0.00000000
  ---------------------------------------------------
  free energy    TOTEN  =        -3.79900288 eV

  energy without entropy =       -3.79863342  energy(sigma->0) =       -3.79881815


--------------------------------------------------------------------------------------------------------




--------------------------------------- Iteration      1(   6)  ---------------------------------------


    POTLOK:  cpu time    0.0065: real time    0.0065
    SETDIJ:  cpu time    0.0014: real time    0.0014
     EDDAV:  cpu time    0.0533: real time    0.0533
       DOS:  cpu time    0.0004: real time    0.0004
    CHARGE:  cpu time    0.0057: real time    0.0057
    MIXING:  cpu time    0.0003: real time    0.0003
    --------------------------------------------
      LOOP:  cpu time    0.0676: real time    0.0676

 eigenvalue-minimisations  :   410
 total energy-change (2. order) : 0.1965449E-02  (-0.9630713E-05)
 number of electron       2.0000000 magnetization 
 augmentation part        0.0153913 magnetization 

 Broyden mixing:
  rms(total) = 0.12607E-01    rms(broyden)= 0.12607E-01
  rms(prec ) = 0.39197E-01
  weight for this iteration     100.00

 eigenvalues of (default mixing * dielectric matrix)
  average eigenvalue GAMMA=   2.8899
  2.8899

 Free energy of the ion-electron system (eV)
  ---------------------------------------------------
  alpha Z        PSCENC =         0.25757056
  Ewald energy   TEWEN  =       -15.23682077
  -Hartree energ DENC   =        -0.01367909
  -exchange      EXHF   =         0.00000000
  -V(xc)+E(xc)   XCENC  =        -8.53545901
  PAW double counting   =        16.46063801       -5.34899409
  entropy T*S    EENTRO =        -0.00036946
  eigenvalues    EBANDS =        -1.98010132
  atomic energy  EATOM  =        10.60017774
  Solvation  Ediel_sol  =         0.00000000
  ---------------------------------------------------
  free energy    TOTEN  =        -3.79703743 eV

  energy without entropy =       -3.79666797  energy(sigma->0) =       -3.79685270


--------------------------------------------------------------------------------------------------------




--------------------------------------- Iteration      1(   7)  ---------------------------------------


    POTLOK:  cpu time    0.0062: real time    0.0062
    SETDIJ:  cpu time    0.0013: real time    0.0013
     EDDAV:  cpu time    0.0504: real time    0.0504
       DOS:  cpu time    0.0004: real time    0.0004
    CHARGE:  cpu time    0.0055: real time    0.0055
    MIXING:  cpu time    0.0003: real time    0.0003
    --------------------------------------------
      LOOP:  cpu time    0.0642: real time    0.0642

 eigenvalue-minimisations  :   385
 total energy-change (2. order) : 0.1258372E-02  (-0.2745797E-04)
 number of electron       2.0000000 magnetization 
 augmentation part        0.0154719 magnetization 

 Broyden mixing:
  rms(total) = 0.60672E-03    rms(broyden)= 0.60672E-03
  rms(prec ) = 0.63754E-03
  weight for this iteration     100.00

 eigenvalues of (default mixing * dielectric matrix)
  average eigenvalue GAMMA=   2.6517
  2.4409  2.8626

 Free energy of the ion-electron system (eV)
  ---------------------------------------------------
  alpha Z        PSCENC =         0.25757056
  Ewald energy   TEWEN  =       -15.23682077
  -Hartree energ DENC   =        -0.02584575
  -exchange      EXHF   =         0.00000000
  -V(xc)+E(xc)   XCENC  =        -8.50213104
  PAW double counting   =        18.83331638       -7.73398522
  entropy T*S    EENTRO =        -0.00036946
  eigenvalues    EBANDS =        -1.98769149
  atomic energy  EATOM  =        10.60017774
  Solvation  Ediel_sol  =         0.00000000
  ---------------------------------------------------
  free energy    TOTEN  =        -3.79577906 eV

  energy without entropy =       -3.79540960  energy(sigma->0) =       -3.79559433


--------------------------------------------------------------------------------------------------------




--------------------------------------- Iteration      1(   8)  ---------------------------------------


    POTLOK:  cpu time    0.0060: real time    0.0060
    SETDIJ:  cpu time    0.0013: real time    0.0013
     EDDAV:  cpu time    0.0482: real time    0.0482
       DOS:  cpu time    0.0004: real time    0.0004
    CHARGE:  cpu time    0.0055: real time    0.0055
    MIXING:  cpu time    0.0003: real time    0.0003
    --------------------------------------------
      LOOP:  cpu time    0.0617: real time    0.0617

 eigenvalue-minimisations  :   350
 total energy-change (2. order) : 0.4316626E-04  (-0.2972549E-06)
 number of electron       2.0000000 magnetization 
 augmentation part        0.0154752 magnetization 

 Broyden mixing:
  rms(total) = 0.22561E-03    rms(broyden)= 0.22561E-03
  rms(prec ) = 0.24067E-03
  weight for this iteration     100.00

 eigenvalues of (default mixing * dielectric matrix)
  average eigenvalue GAMMA=   2.0982
  0.9350  2.8619  2.4976

 Free energy of the ion-electron system (eV)
  ---------------------------------------------------
  alpha Z        PSCENC =         0.25757056
  Ewald energy   TEWEN  =       -15.23682077
  -Hartree energ DENC   =        -0.02581033
  -exchange      EXHF   =         0.00000000
  -V(xc)+E(xc)   XCENC  =        -8.50225671
  PAW double counting   =        18.62500449       -7.52420626
  entropy T*S    EENTRO =        -0.00036946
  eigenvalues    EBANDS =        -1.98902516
  atomic energy  EATOM  =        10.60017774
  Solvation  Ediel_sol  =         0.00000000
  ---------------------------------------------------
  free energy    TOTEN  =        -3.79573589 eV

  energy without entropy =       -3.79536643  energy(sigma->0) =       -3.79555116


--------------------------------------------------------------------------------------------------------




--------------------------------------- Iteration      1(   9)  ---------------------------------------


    POTLOK:  cpu time    0.0060: real time    0.0060
    SETDIJ:  cpu time    0.0013: real time    0.0013
     EDDAV:  cpu time    0.0316: real time    0.0316
       DOS:  cpu time    0.0003: real time    0.0003
    --------------------------------------------
      LOOP:  cpu time    0.0392: real time    0.0392

 eigenvalue-minimisations  :   195
 total energy-change (2. order) : 0.7213315E-05  (-0.7139883E-07)
 number of electron       2.0000000 magnetization 
 augmentation part        0.0154752 magnetization 

 Free energy of the ion-electron system (eV)
  ---------------------------------------------------
  alpha Z        PSCENC =         0.25757056
  Ewald energy   TEWEN  =       -15.23682077
  -Hartree energ DENC   =        -0.02577589
  -exchange      EXHF   =         0.00000000
  -V(xc)+E(xc)   XCENC  =        -8.50236315
  PAW double counting   =        18.50565848       -7.40401979
  entropy T*S    EENTRO =        -0.00036946
  eigenvalues    EBANDS =        -1.98978640
  atomic energy  EATOM  =        10.60017774
  Solvation  Ediel_sol  =         0.00000000
  ---------------------------------------------------
  free energy    TOTEN  =        -3.79572868 eV

  energy without entropy =       -3.79535922  energy(sigma->0) =       -3.79554395


--------------------------------------------------------------------------------------------------------




 average (electrostatic) potential at core
  the test charge radii are     0.9748
  (the norm of the test charge is              1.0000)
       1 -30.5695       2 -30.5695
 
 
 
 E-fermi :   0.3304     XC(G=0):  -6.7620     alpha+bet : -7.2201


 k-point     1 :       0.0000    0.0000    0.0000
  band No.  band energies     occupation 
      1      -3.1809      2.00000
      2       5.9028      0.00000
      3       5.9028      0.00000
      4       5.9028      0.00000
      5       8.1472      0.00000

 k-point     2 :       0.1111    0.0000    0.0000
  band No.  band energies     occupation 
      1      -3.0633      2.00000
      2       4.5746      0.00000
      3       6.0536      0.00000
      4       6.0536      0.00000
      5       8.3040      0.00000

 k-point     3 :       0.2222    0.0000    0.0000
  band No.  band energies     occupation 
      1      -2.7094      2.00000
      2       2.7727      0.00000
      3       6.5053      0.00000
      4       6.5053      0.00000
      5       8.7747      0.00000

 k-point     4 :       0.3333    0.0000    0.0000
  band No.  band energies     occupation 
      1      -2.1152      2.00000
      2       1.1691      0.00000
      3       7.2547      0.00000
      4       7.2547      0.00000
      5       9.5590      0.00000

 k-point     5 :       0.4444    0.0000    0.0000
  band No.  band energies     occupation 
      1      -1.2749      2.00000
      2      -0.1817      2.00000
      3       8.2949      0.00000
      4       8.2949      0.00000
      5       9.6110      0.00000

 k-point     6 :       0.1111    0.1111    0.0000
  band No.  band energies     occupation 
      1      -2.9459      2.00000
      2       4.3136      0.00000
      3       5.2278      0.00000
      4       6.2041      0.00000
      5       9.2377      0.00000

 k-point     7 :       0.2222    0.1111    0.0000
  band No.  band energies     occupation 
      1      -2.5925      2.00000
      2       2.8099      0.00000
      3       5.4204      0.00000
      4       6.6546      0.00000
      5       9.9036      0.00000

 k-point     8 :       0.3333    0.1111    0.0000
  band No.  band energies     occupation 
      1      -1.9999      2.00000
      2       1.2548      0.00000
      3       6.1312      0.00000
      4       7.4013      0.00000
      5       9.9997      0.00000

 k-point     9 :       0.4444    0.1111    0.0000
  band No.  band energies     occupation 
      1      -1.1633      2.00000
      2      -0.0782      2.00000
      3       7.1512      0.00000
      4       8.4360      0.00000
      5       8.4512      0.00000

 k-point    10 :       0.2222    0.2222    0.0000
  band No.  band energies     occupation 
      1      -2.2416      2.00000
      2       2.5449      0.00000
      3       4.3938      0.00000
      4       7.1008      0.00000
      5       9.9445      0.00000

 k-point    11 :       0.3333    0.2222    0.0000
  band No.  band energies     occupation 
      1      -1.6555      2.00000
      2       1.4359      0.00000
      3       4.6511      0.00000
      4       7.8383      0.00000
      5       8.2441      0.00000

 k-point    12 :       0.4444    0.2222    0.0000
  band No.  band energies     occupation 
      1      -0.8350      2.00000
      2       0.2114      2.00000
      3       5.5355      0.00000
      4       6.7559      0.00000
      5       8.8522      0.00000

 k-point    13 :       0.3333    0.3333    0.0000
  band No.  band energies     occupation 
      1      -1.0881      2.00000
      2       1.3297      0.00000
      3       3.8766      0.00000
      4       6.6202      0.00000
      5       8.5535      0.00000

 k-point    14 :       0.4444    0.3333    0.0000
  band No.  band energies     occupation 
      1      -0.3172      2.00000
      2       0.5857      0.00000
      3       4.2330      0.00000
      4       5.2487      0.00000
      5       9.5122      0.00000

 k-point    15 :       0.4444    0.4444    0.0000
  band No.  band energies     occupation 
      1       0.2991      1.99999
      2       0.7175      0.00000
      3       3.6501      0.00000
      4       4.1075      0.00000
      5      10.3044      0.00000

 k-point    16 :       0.1111    0.1111    0.1111
  band No.  band energies     occupation 
      1      -2.8286      2.00000
      2       4.4669      0.00000
      3       4.4669      0.00000
      4       6.0684      0.00000
      5      10.5105      0.00000

 k-point    17 :       0.2222    0.1111    0.1111
  band No.  band energies     occupation 
      1      -2.4755      2.00000
      2       2.8831      0.00000
      3       4.9263      0.00000
      4       6.4046      0.00000
      5      10.9715      0.00000

 k-point    18 :       0.3333    0.1111    0.1111
  band No.  band energies     occupation 
      1      -1.8839      2.00000
      2       1.3496      0.00000
      3       5.6904      0.00000
      4       7.0739      0.00000
      5       9.7511      0.00000

 k-point    19 :       0.4444    0.1111    0.1111
  band No.  band energies     occupation 
      1      -1.0501      2.00000
      2       0.0289      2.00000
      3       6.7557      0.00000
      4       8.0116      0.00000
      5       8.1148      0.00000

 k-point    20 :       0.2222    0.2222    0.1111
  band No.  band energies     occupation 
      1      -2.1240      2.00000
      2       2.6991      0.00000
      3       4.1152      0.00000
      4       6.6416      0.00000
      5       9.9960      0.00000

 k-point    21 :       0.3333    0.2222    0.1111
  band No.  band energies     occupation 
      1      -1.5375      2.00000
      2       1.5609      0.00000
      3       4.5058      0.00000
      4       7.2626      0.00000
      5       8.2679      0.00000

 k-point    22 :       0.4444    0.2222    0.1111
  band No.  band energies     occupation 
      1      -0.7169      2.00000
      2       0.3296      1.08334
      3       5.4601      0.00000
      4       6.7331      0.00000
      5       8.1548      0.00000

 k-point    23 :       0.3333    0.3333    0.1111
  band No.  band energies     occupation 
      1      -0.9667      2.00000
      2       1.4842      0.00000
      3       3.8016      0.00000
      4       6.6670      0.00000
      5       7.8560      0.00000

 k-point    24 :       0.4444    0.3333    0.1111
  band No.  band energies     occupation 
      1      -0.1903      2.00000
      2       0.7242      0.00000
      3       4.2227      0.00000
      4       5.2787      0.00000
      5       8.7118      0.00000

 k-point    25 :       0.4444    0.4444    0.1111
  band No.  band energies     occupation 
      1       0.4406      0.00000
      2       0.8722      0.00000
      3       3.6560      0.00000
      4       4.1359      0.00000
      5       9.5071      0.00000

 k-point    26 :       0.2222    0.2222    0.2222
  band No.  band energies     occupation 
      1      -1.7715      2.00000
      2       3.1614      0.00000
      3       3.1614      0.00000
      4       6.4072      0.00000
      5       9.9924      0.00000

 k-point    27 :       0.3333    0.2222    0.2222
  band No.  band energies     occupation 
      1      -1.1853      2.00000
      2       1.8845      0.00000
      3       3.9309      0.00000
      4       6.7432      0.00000
      5       8.0516      0.00000

 k-point    28 :       0.4444    0.2222    0.2222
  band No.  band energies     occupation 
      1      -0.3688      2.00000
      2       0.6665      0.00000
      3       5.0058      0.00000
      4       6.3822      0.00000
      5       7.4055      0.00000

 k-point    29 :       0.3333    0.3333    0.2222
  band No.  band energies     occupation 
      1      -0.6055      2.00000
      2       1.9477      0.00000
      3       3.4666      0.00000
      4       6.7815      0.00000
      5       6.8858      0.00000

 k-point    30 :       0.4444    0.3333    0.2222
  band No.  band energies     occupation 
      1       0.1844      2.00000
      2       1.1291      0.00000
      3       4.1310      0.00000
      4       5.3315      0.00000
      5       7.4226      0.00000

 k-point    31 :       0.4444    0.4444    0.2222
  band No.  band energies     occupation 
      1       0.8600      0.00000
      2       1.3361      0.00000
      3       3.6547      0.00000
      4       4.2183      0.00000
      5       7.8514      0.00000

 k-point    32 :       0.3333    0.3333    0.3333
  band No.  band energies     occupation 
      1      -0.0145      2.00000
      2       2.7195      0.00000
      3       2.7195      0.00000
      4       6.4681      0.00000
      5       6.8637      0.00000

 k-point    33 :       0.4444    0.3333    0.3333
  band No.  band energies     occupation 
      1       0.7836      0.00000
      2       1.7374      0.00000
      3       3.7983      0.00000
      4       5.1815      0.00000
      5       6.5363      0.00000

 k-point    34 :       0.4444    0.4444    0.3333
  band No.  band energies     occupation 
      1       1.5356      0.00000
      2       2.1088      0.00000
      3       3.5683      0.00000
      4       4.3529      0.00000
      5       6.2390      0.00000

 k-point    35 :       0.4444    0.4444    0.4444
  band No.  band energies     occupation 
      1       2.3944      0.00000
      2       3.1891      0.00000
      3       3.1891      0.00000
      4       4.5750      0.00000
      5       4.5750      0.00000


--------------------------------------------------------------------------------------------------------


 soft charge-density along one line, spin component           1
         0         1         2         3         4         5         6         7         8         9
 total charge-density along one line
 
 pseudopotential strength for first ion, spin component:           1
  1.157   5.299  -0.000  -0.000  -0.000
  5.299  23.085  -0.000  -0.000  -0.000
 -0.000  -0.000  -0.468  -0.000  -0.000
 -0.000  -0.000  -0.000  -0.468  -0.000
 -0.000  -0.000  -0.000  -0.000  -0.468
 total augmentation occupancy for first ion, spin component:           1
  1.108  -0.015   0.000   0.000   0.000
 -0.015   0.000   0.000   0.000   0.000
  0.000   0.000   0.046   0.000   0.000
  0.000   0.000   0.000   0.046   0.000
 -0.000   0.000   0.000   0.000   0.046


------------------------ aborting loop because EDIFF is reached ----------------------------------------


 


 total charge     
 
# of ion       s       p       d       tot
------------------------------------------
    1        0.116   0.099   0.000   0.215
    2        0.116   0.099   0.000   0.215
--------------------------------------------------
tot          0.232   0.198   0.000   0.430
 
    CHARGE:  cpu time    0.0056: real time    0.0057
    FORLOC:  cpu time    0.0002: real time    0.0002
    FORNL :  cpu time    0.0019: real time    0.0019
    STRESS:  cpu time    0.0153: real time    0.0153
    FORCOR:  cpu time    0.0051: real time    0.0051
    FORHAR:  cpu time    0.0013: real time    0.0013
    MIXING:  cpu time    0.0003: real time    0.0003
    OFIELD:  cpu time    0.0000: real time    0.0000

  FORCE on cell =-STRESS in cart. coord.  units (eV):
  Direction    XX          YY          ZZ          XY          YZ          ZX
  --------------------------------------------------------------------------------------
  Alpha Z     0.25757     0.25757     0.25757
  Ewald      -5.07894    -5.07894    -5.07894    -0.00000    -0.00000    -0.00000
  Hartree     0.00859     0.00859     0.00859    -0.00000    -0.00000    -0.00000
  E(xc)      -3.50464    -3.50464    -3.50464    -0.00000     0.00000     0.00000
  Local       0.27458     0.27458     0.27458     0.00000     0.00000     0.00000
  n-local     2.64279     3.15541     3.28666    -0.22390    -0.11797    -0.12086
  augment     0.12889     0.12889     0.12889     0.00000     0.00000     0.00000
  Kinetic     8.98058     4.00238     1.70110     3.13547     1.00468     1.30922
  Fock        0.00000     0.00000     0.00000     0.00000     0.00000     0.00000
  -------------------------------------------------------------------------------------
  Total       0.00903     0.00903     0.00903    -0.00000    -0.00000    -0.00000
  in kB       0.35563     0.35563     0.35563    -0.00000    -0.00000    -0.00000
  external pressure =        0.36 kB  Pullay stress =        0.00 kB


 VOLUME and BASIS-vectors are now :
 -----------------------------------------------------------------------------
  energy-cutoff  :      400.00
  volume of cell :       40.68
      direct lattice vectors                 reciprocal lattice vectors
     3.439312453  0.000000000  0.000000000     0.290755787 -0.000000000  0.000000000
     0.000000000  3.439312453  0.000000000     0.000000000  0.290755787  0.000000000
     0.000000000  0.000000000  3.439312453    -0.000000000 -0.000000000  0.290755787

  length of vectors
     3.439312453  3.439312453  3.439312453     0.290755787  0.290755787  0.290755787


 FORCES acting on ions
    electron-ion (+dipol)            ewald-force                    non-local-force                 convergence-correction
 -----------------------------------------------------------------------------------------------
   0.111E-15 0.205E-15 0.176E-15   -.119E-16 -.137E-16 -.127E-16   0.355E-24 0.620E-24 -.124E-23   -.373E-17 -.769E-18 -.232E-18
   0.206E-15 -.221E-15 0.349E-14   0.255E-16 0.227E-16 0.227E-16   -.145E-23 0.000E+00 -.207E-24   -.785E-18 -.115E-17 0.267E-18
 -----------------------------------------------------------------------------------------------
   0.317E-15 -.166E-16 0.366E-14   0.137E-16 0.900E-17 0.100E-16   -.110E-23 0.620E-24 -.145E-23   -.452E-17 -.192E-17 0.351E-19
 
 
 POSITION                                       TOTAL-FORCE (eV/Angst)
 -----------------------------------------------------------------------------------
      0.00000      0.00000      0.00000         0.000000      0.000000      0.000000
      1.71966      1.71966      1.71966        -0.000000     -0.000000     -0.000000
 -----------------------------------------------------------------------------------
    total drift:                                0.000000     -0.000000      0.000000


--------------------------------------------------------------------------------------------------------



  FREE ENERGIE OF THE ION-ELECTRON SYSTEM (eV)
  ---------------------------------------------------
  free  energy   TOTEN  =        -3.79572868 eV

  energy  without entropy=       -3.79535922  energy(sigma->0) =       -3.79554395
 


--------------------------------------------------------------------------------------------------------


    POTLOK:  cpu time    0.0072: real time    0.0072


--------------------------------------------------------------------------------------------------------


 Quasi-Newton relaxation of ions (Broydens 2nd method)
  g(Force)  = 0.339E-67   g(Stress)= 0.118E-05

 Reset! Starting new Quasi-Newton update for ions 


--------------------------------------------------------------------------------------------------------


  
 reached required accuracy - stopping structural energy minimisation
     LOOP+:  cpu time    0.5943: real time    0.5944
    4ORBIT:  cpu time    0.0000: real time    0.0000
 


 total charge     
 
# of ion       s       p       d       tot
------------------------------------------
    1        0.116   0.099   0.000   0.215
    2        0.116   0.099   0.000   0.215
--------------------------------------------------
tot          0.232   0.198   0.000   0.430
 

 total amount of memory used by VASP MPI-rank0    30786. kBytes
=======================================================================

   base      :      30000. kBytes
   nonl-proj :        171. kBytes
   fftplans  :        223. kBytes
   grid      :        321. kBytes
   one-center:          1. kBytes
   wavefun   :         70. kBytes
 
  
  
 General timing and accounting informations for this job:
 ========================================================
  
                  Total CPU time used (sec):        1.380
                            User time (sec):        0.995
                          System time (sec):        0.385
                         Elapsed time (sec):        1.650
  
                   Maximum memory used (kb):      154364.
                   Average memory used (kb):           0.
  
                          Minor page faults:         9705
                          Major page faults:         4778
                 Voluntary context switches:           70
