 vasp.5.4.4.18Apr17-6-g9f103f2a35 (build Apr 24 2023 09:55:28) complex          
  
 executed on             LinuxIFC date 2024.04.22  15:40:22
 running on   35 total cores
 distrk:  each k-point on   35 cores,    1 groups
 distr:  one band on NCORES_PER_BAND=   7 cores,    5 groups


--------------------------------------------------------------------------------------------------------


 INCAR:
 POTCAR:    PAW_PBE Ca_sv 06Sep2000               
 POTCAR:    PAW_PBE Fe 06Sep2000                  
 POTCAR:    PAW_PBE B 06Sep2000                   
 POTCAR:    PAW_PBE P 06Sep2000                   
 POTCAR:    PAW_PBE Ca_sv 06Sep2000               
   VRHFIN =Ca: 3s3p4s                                                           
   LEXCH  = PE                                                                  
   EATOM  =  1006.0909 eV,   73.9456 Ry                                         
                                                                                
   TITEL  = PAW_PBE Ca_sv 06Sep2000                                             
   LULTRA =        F    use ultrasoft PP ?                                      
   IUNSCR =        1    unscreen: 0-lin 1-nonlin 2-no                           
   RPACOR =    2.000    partial core radius                                     
   POMASS =   40.078; ZVAL   =   10.000    mass and valenz                      
   RCORE  =    2.300    outmost cutoff radius                                   
   RWIGS  =    2.500; RWIGS  =    1.323    wigner-seitz radius (au A)           
   ENMAX  =  266.622; ENMIN  =  199.967 eV                                      
   RCLOC  =    1.808    cutoff for local pot                                    
   LCOR   =        T    correct aug charges                                     
   LPAW   =        T    paw PP                                                  
   EAUG   =  420.852                                                            
   RMAX   =    2.359    core radius for proj-oper                               
   RAUG   =    1.300    factor for augmentation sphere                          
   RDEP   =    2.392    radius for radial grids                                 
   RDEPT  =    1.987    core radius for aug-charge                              
                                                                                
   Atomic configuration                                                         
    7 entries                                                                   
     n  l   j            E        occ.                                          
     1  0  0.50     -3949.1705   2.0000                                         
     2  0  0.50      -414.3434   2.0000                                         
     2  1  1.50      -334.7047   6.0000                                         
     3  0  0.50       -47.0896   2.0000                                         
     4  0  0.50        -3.7663   2.0000                                         
     3  1  1.50       -28.0061   6.0000                                         
     3  2  1.50        -4.0817   0.0000                                         
   Description                                                                  
     l       E           TYP  RCUT    TYP  RCUT                                 
     0    -47.0896403     23  2.300                                             
     0     -3.7663320     23  2.300                                             
     1    -28.0060855     23  2.300                                             
     1      6.8029130     23  2.300                                             
     2     -4.0817478     23  2.300                                             
     2      0.4464412     23  2.300                                             
  local pseudopotential read in
  partial core-charges read in
  partial kinetic energy density read in
  atomic valenz-charges read in
  non local Contribution for L=           0  read in
    real space projection operators read in
  non local Contribution for L=           0  read in
    real space projection operators read in
  non local Contribution for L=           1  read in
    real space projection operators read in
  non local Contribution for L=           1  read in
    real space projection operators read in
  non local Contribution for L=           2  read in
    real space projection operators read in
  non local Contribution for L=           2  read in
    real space projection operators read in
    PAW grid and wavefunctions read in
 
   number of l-projection  operators is LMAX  =           6
   number of lm-projection operators is LMMAX =          18
 
 POTCAR:    PAW_PBE Fe 06Sep2000                  
   VRHFIN =Fe:  d7 s1                                                           
   LEXCH  = PE                                                                  
   EATOM  =   594.3153 eV,   43.6809 Ry                                         
                                                                                
   TITEL  = PAW_PBE Fe 06Sep2000                                                
   LULTRA =        F    use ultrasoft PP ?                                      
   IUNSCR =        1    unscreen: 0-lin 1-nonlin 2-no                           
   RPACOR =    2.000    partial core radius                                     
   POMASS =   55.847; ZVAL   =    8.000    mass and valenz                      
   RCORE  =    2.300    outmost cutoff radius                                   
   RWIGS  =    2.460; RWIGS  =    1.302    wigner-seitz radius (au A)           
   ENMAX  =  267.882; ENMIN  =  200.911 eV                                      
   RCLOC  =    1.701    cutoff for local pot                                    
   LCOR   =        T    correct aug charges                                     
   LPAW   =        T    paw PP                                                  
   EAUG   =  511.368                                                            
   DEXC   =    0.000                                                            
   RMAX   =    2.356    core radius for proj-oper                               
   RAUG   =    1.300    factor for augmentation sphere                          
   RDEP   =    2.442    radius for radial grids                                 
   RDEPT  =    1.890    core radius for aug-charge                              
                                                                                
   Atomic configuration                                                         
    9 entries                                                                   
     n  l   j            E        occ.                                          
     1  0  0.50     -6993.8440   2.0000                                         
     2  0  0.50      -814.6047   2.0000                                         
     2  1  1.50      -693.3689   6.0000                                         
     3  0  0.50       -89.4732   2.0000                                         
     3  1  1.50       -55.6373   6.0000                                         
     3  2  2.50        -3.8151   7.0000                                         
     4  0  0.50        -4.2551   1.0000                                         
     4  1  1.50        -3.4015   0.0000                                         
     4  3  2.50        -1.3606   0.0000                                         
   Description                                                                  
     l       E           TYP  RCUT    TYP  RCUT                                 
     2     -3.8151135     23  2.300                                             
     2     -5.1756961     23  2.300                                             
     0     -4.2550963     23  2.300                                             
     0      7.2035603     23  2.300                                             
     1     -2.7211652     23  2.300                                             
     1     18.4316424     23  2.300                                             
  local pseudopotential read in
  partial core-charges read in
  partial kinetic energy density read in
  atomic valenz-charges read in
  non local Contribution for L=           2  read in
    real space projection operators read in
  non local Contribution for L=           2  read in
    real space projection operators read in
  non local Contribution for L=           0  read in
    real space projection operators read in
  non local Contribution for L=           0  read in
    real space projection operators read in
  non local Contribution for L=           1  read in
    real space projection operators read in
  non local Contribution for L=           1  read in
    real space projection operators read in
    PAW grid and wavefunctions read in
 
   number of l-projection  operators is LMAX  =           6
   number of lm-projection operators is LMMAX =          18
 
 POTCAR:    PAW_PBE B 06Sep2000                   
   VRHFIN =B: s2p1                                                              
   LEXCH  = PE                                                                  
   EATOM  =    71.1703 eV,    5.2309 Ry                                         
                                                                                
   TITEL  = PAW_PBE B 06Sep2000                                                 
   LULTRA =        F    use ultrasoft PP ?                                      
   IUNSCR =        1    unscreen: 0-lin 1-nonlin 2-no                           
   RPACOR =    1.200    partial core radius                                     
   POMASS =   10.811; ZVAL   =    3.000    mass and valenz                      
   RCORE  =    1.700    outmost cutoff radius                                   
   RWIGS  =    1.710; RWIGS  =    0.905    wigner-seitz radius (au A)           
   ENMAX  =  318.614; ENMIN  =  238.960 eV                                      
   ICORE  =        2    local potential                                         
   LCOR   =        T    correct aug charges                                     
   LPAW   =        T    paw PP                                                  
   EAUG   =  535.514                                                            
   DEXC   =    0.000                                                            
   RMAX   =    1.732    core radius for proj-oper                               
   RAUG   =    1.300    factor for augmentation sphere                          
   RDEP   =    1.757    radius for radial grids                                 
   RDEPT  =    1.436    core radius for aug-charge                              
                                                                                
   Atomic configuration                                                         
    4 entries                                                                   
     n  l   j            E        occ.                                          
     1  0  0.50      -180.5896   2.0000                                         
     2  0  0.50        -9.4431   2.0000                                         
     2  1  0.50        -3.6068   1.0000                                         
     3  2  1.50        -4.0817   0.0000                                         
   Description                                                                  
     l       E           TYP  RCUT    TYP  RCUT                                 
     0     -9.4430752     23  1.500                                             
     0      0.8675899     23  1.500                                             
     1     -3.6067955     23  1.700                                             
     1      6.1086146     23  1.700                                             
     2     -4.0817478      7  1.700                                             
  local pseudopotential read in
  partial core-charges read in
  partial kinetic energy density read in
  atomic valenz-charges read in
  non local Contribution for L=           0  read in
    real space projection operators read in
  non local Contribution for L=           0  read in
    real space projection operators read in
  non local Contribution for L=           1  read in
    real space projection operators read in
  non local Contribution for L=           1  read in
    real space projection operators read in
    PAW grid and wavefunctions read in
 
   number of l-projection  operators is LMAX  =           4
   number of lm-projection operators is LMMAX =           8
 
 POTCAR:    PAW_PBE P 06Sep2000                   
   VRHFIN =P : s2p3                                                             
   LEXCH  = PE                                                                  
   EATOM  =   176.0430 eV,   12.9388 Ry                                         
                                                                                
   TITEL  = PAW_PBE P 06Sep2000                                                 
   LULTRA =        F    use ultrasoft PP ?                                      
   IUNSCR =        1    unscreen: 0-lin 1-nonlin 2-no                           
   RPACOR =    1.500    partial core radius                                     
   POMASS =   30.974; ZVAL   =    5.000    mass and valenz                      
   RCORE  =    1.900    outmost cutoff radius                                   
   RWIGS  =    2.330; RWIGS  =    1.233    wigner-seitz radius (au A)           
   ENMAX  =  255.040; ENMIN  =  191.280 eV                                      
   ICORE  =        2    local potential                                         
   LCOR   =        T    correct aug charges                                     
   LPAW   =        T    paw PP                                                  
   EAUG   =  342.924                                                            
   DEXC   =    0.000                                                            
   RMAX   =    1.935    core radius for proj-oper                               
   RAUG   =    1.300    factor for augmentation sphere                          
   RDEP   =    1.931    radius for radial grids                                 
   RDEPT  =    1.794    core radius for aug-charge                              
                                                                                
   Atomic configuration                                                         
    6 entries                                                                   
     n  l   j            E        occ.                                          
     1  0  0.50     -2084.0982   2.0000                                         
     2  0  0.50      -173.9859   2.0000                                         
     2  1  1.50      -124.4865   6.0000                                         
     3  0  0.50       -13.9692   2.0000                                         
     3  1  0.50        -5.5067   3.0000                                         
     3  2  1.50        -5.4423   0.0000                                         
   Description                                                                  
     l       E           TYP  RCUT    TYP  RCUT                                 
     0    -13.9691527     23  1.900                                             
     0    -11.7794650     23  1.900                                             
     1     -5.5066937     23  1.900                                             
     1     -0.2556953     23  1.900                                             
     2     -5.4423304     23  1.900                                             
  local pseudopotential read in
  partial core-charges read in
  partial kinetic energy density read in
  atomic valenz-charges read in
  non local Contribution for L=           0  read in
    real space projection operators read in
  non local Contribution for L=           0  read in
    real space projection operators read in
  non local Contribution for L=           1  read in
    real space projection operators read in
  non local Contribution for L=           1  read in
    real space projection operators read in
    PAW grid and wavefunctions read in
 
   number of l-projection  operators is LMAX  =           4
   number of lm-projection operators is LMMAX =           8
 
  PAW_PBE Ca_sv 06Sep2000               :
 energy of atom  1       EATOM=-1006.0909
 kinetic energy error for atom=    0.0058 (will be added to EATOM!!)
  PAW_PBE Fe 06Sep2000                  :
 energy of atom  2       EATOM= -594.3153
 kinetic energy error for atom=    0.0088 (will be added to EATOM!!)
  PAW_PBE B 06Sep2000                   :
 energy of atom  3       EATOM=  -71.1703
 kinetic energy error for atom=    0.0020 (will be added to EATOM!!)
  PAW_PBE P 06Sep2000                   :
 energy of atom  4       EATOM= -176.0430
 kinetic energy error for atom=    0.0023 (will be added to EATOM!!)
 
 
 POSCAR: Ca2 Fe2 B2 P2                           
  positions in direct lattice
  No initial velocities read in
 exchange correlation table for  LEXCH =        8
   RHO(1)=    0.500       N(1)  =     2000
   RHO(2)=  100.500       N(2)  =     4000
 


--------------------------------------------------------------------------------------------------------


 ion  position               nearest neighbor table
   1  0.000  0.000  0.250-   4 2.91   4 2.91   4 2.91   4 2.91   7 2.93   8 2.93   7 2.93   8 2.93

   2  0.000  0.000  0.750-   3 2.91   3 2.91   3 2.91   3 2.91   8 2.93   7 2.93   7 2.93   8 2.93

   3  0.500  0.500  0.750-   5 1.79   6 1.79   7 2.51   8 2.51   7 2.51   8 2.51   2 2.91   2 2.91
                             2 2.91   2 2.91
   4  0.500  0.500  0.250-   5 1.79   6 1.79   7 2.51   8 2.51   7 2.51   8 2.51   1 2.91   1 2.91
                             1 2.91   1 2.91
   5  0.500  0.500  0.000-   7 1.75   7 1.75   3 1.79   4 1.79
   6  0.500  0.500  0.500-   8 1.75   8 1.75   3 1.79   4 1.79
   7  0.000  0.500  0.000-   5 1.75   5 1.75   3 2.51   3 2.51   4 2.51   4 2.51   1 2.93   2 2.93
                             2 2.93   1 2.93
   8  0.000  0.500  0.500-   6 1.75   6 1.75   3 2.51   3 2.51   4 2.51   4 2.51   2 2.93   1 2.93
                             2 2.93   1 2.93
 
  LATTYP: Found a simple orthorhombic cell.
 ALAT       =     3.4995700000
 B/A-ratio  =     1.3265115428
 C/A-ratio  =     2.0514034581
  
  Lattice vectors:
  
 A1 = (   3.4995700000,   0.0000000000,   0.0000000000)
 A2 = (   0.0000000000,   4.6422200000,   0.0000000000)
 A3 = (   0.0000000000,   0.0000000000,   7.1790300000)


Analysis of symmetry for initial positions (statically):
=====================================================================
 Subroutine PRICEL returns following result:
 
  LATTYP: Found a simple orthorhombic cell.
 ALAT       =     3.4995700000
 B/A-ratio  =     1.0257017291
 C/A-ratio  =     1.3265115428
  
  Lattice vectors:
  
 A1 = (  -3.4995700000,   0.0000000000,   0.0000000000)
 A2 = (   0.0000000000,   0.0000000000,  -3.5895150000)
 A3 = (  -0.0000000000,  -4.6422200000,  -0.0000000000)
 
   2 primitive cells build up your supercell.
 

 Routine SETGRP: Setting up the symmetry group for a 
 simple orthorhombic supercell.


 Subroutine GETGRP returns: Found  8 space group operations
 (whereof  8 operations were pure point group operations)
 out of a pool of  8 trial point group operations.


The static configuration has the point symmetry D_2h.


Analysis of symmetry for dynamics (positions and initial velocities):
=====================================================================
 Subroutine PRICEL returns following result:
 
  LATTYP: Found a simple orthorhombic cell.
 ALAT       =     3.4995700000
 B/A-ratio  =     1.0257017291
 C/A-ratio  =     1.3265115428
  
  Lattice vectors:
  
 A1 = (  -3.4995700000,   0.0000000000,   0.0000000000)
 A2 = (   0.0000000000,   0.0000000000,  -3.5895150000)
 A3 = (  -0.0000000000,  -4.6422200000,  -0.0000000000)
 
   2 primitive cells build up your supercell.
 

 Routine SETGRP: Setting up the symmetry group for a 
 simple orthorhombic supercell.


 Subroutine GETGRP returns: Found  8 space group operations
 (whereof  8 operations were pure point group operations)
 out of a pool of  8 trial point group operations.


The dynamic configuration has the point symmetry D_2h.


 Subroutine INISYM returns: Found  8 space group operations
 (whereof  8 operations are pure point group operations),
 and found     2 'primitive' translations

 
 
 KPOINTS: Automatic mesh                          

Automatic generation of k-mesh.
 generate k-points for:    9    6    4
Space group operators:
 irot       det(A)        alpha          n_x          n_y          n_z        tau_x        tau_y        tau_z
    1     1.000000     0.000001     1.000000     0.000000     0.000000     0.000000     0.000000     0.000000
    2    -1.000000     0.000001     1.000000     0.000000     0.000000     0.000000     0.000000     0.000000
    3     1.000000   180.000000    -0.000000    -0.000000     1.000000     0.000000     0.000000     0.000000
    4    -1.000000   180.000000    -0.000000    -0.000000     1.000000     0.000000     0.000000     0.000000
    5     1.000000   180.000000     0.000000     1.000000     0.000000     0.000000     0.000000     0.000000
    6    -1.000000   180.000000     0.000000     1.000000     0.000000     0.000000     0.000000     0.000000
    7     1.000000   180.000000     1.000000    -0.000000     0.000000     0.000000     0.000000     0.000000
    8    -1.000000   180.000000     1.000000    -0.000000     0.000000     0.000000     0.000000     0.000000
 
 Subroutine IBZKPT returns following result:
 ===========================================
 
 Found     60 irreducible k-points:
 
 Following reciprocal coordinates:
            Coordinates               Weight
  0.000000  0.000000  0.000000      1.000000
  0.111111  0.000000  0.000000      2.000000
  0.222222  0.000000  0.000000      2.000000
  0.333333  0.000000  0.000000      2.000000
  0.444444  0.000000  0.000000      2.000000
  0.000000  0.166667  0.000000      2.000000
  0.111111  0.166667  0.000000      4.000000
  0.222222  0.166667  0.000000      4.000000
  0.333333  0.166667  0.000000      4.000000
  0.444444  0.166667  0.000000      4.000000
  0.000000  0.333333  0.000000      2.000000
  0.111111  0.333333  0.000000      4.000000
  0.222222  0.333333  0.000000      4.000000
  0.333333  0.333333  0.000000      4.000000
  0.444444  0.333333  0.000000      4.000000
  0.000000  0.500000  0.000000      1.000000
  0.111111  0.500000  0.000000      2.000000
  0.222222  0.500000  0.000000      2.000000
  0.333333  0.500000  0.000000      2.000000
  0.444444  0.500000  0.000000      2.000000
  0.000000  0.000000  0.250000      2.000000
  0.111111  0.000000  0.250000      4.000000
  0.222222  0.000000  0.250000      4.000000
  0.333333  0.000000  0.250000      4.000000
  0.444444  0.000000  0.250000      4.000000
  0.000000  0.166667  0.250000      4.000000
  0.111111  0.166667  0.250000      8.000000
  0.222222  0.166667  0.250000      8.000000
  0.333333  0.166667  0.250000      8.000000
  0.444444  0.166667  0.250000      8.000000
  0.000000  0.333333  0.250000      4.000000
  0.111111  0.333333  0.250000      8.000000
  0.222222  0.333333  0.250000      8.000000
  0.333333  0.333333  0.250000      8.000000
  0.444444  0.333333  0.250000      8.000000
  0.000000  0.500000  0.250000      2.000000
  0.111111  0.500000  0.250000      4.000000
  0.222222  0.500000  0.250000      4.000000
  0.333333  0.500000  0.250000      4.000000
  0.444444  0.500000  0.250000      4.000000
  0.000000  0.000000  0.500000      1.000000
  0.111111  0.000000  0.500000      2.000000
  0.222222  0.000000  0.500000      2.000000
  0.333333  0.000000  0.500000      2.000000
  0.444444  0.000000  0.500000      2.000000
  0.000000  0.166667  0.500000      2.000000
  0.111111  0.166667  0.500000      4.000000
  0.222222  0.166667  0.500000      4.000000
  0.333333  0.166667  0.500000      4.000000
  0.444444  0.166667  0.500000      4.000000
  0.000000  0.333333  0.500000      2.000000
  0.111111  0.333333  0.500000      4.000000
  0.222222  0.333333  0.500000      4.000000
  0.333333  0.333333  0.500000      4.000000
  0.444444  0.333333  0.500000      4.000000
  0.000000  0.500000  0.500000      1.000000
  0.111111  0.500000  0.500000      2.000000
  0.222222  0.500000  0.500000      2.000000
  0.333333  0.500000  0.500000      2.000000
  0.444444  0.500000  0.500000      2.000000
 
 Following cartesian coordinates:
            Coordinates               Weight
  0.000000  0.000000  0.000000      1.000000
  0.031750 -0.000000  0.000000      2.000000
  0.063500 -0.000000  0.000000      2.000000
  0.095250 -0.000000  0.000000      2.000000
  0.127000 -0.000000  0.000000      2.000000
  0.000000  0.035902  0.000000      2.000000
  0.031750  0.035902  0.000000      4.000000
  0.063500  0.035902  0.000000      4.000000
  0.095250  0.035902  0.000000      4.000000
  0.127000  0.035902  0.000000      4.000000
  0.000000  0.071805  0.000000      2.000000
  0.031750  0.071805  0.000000      4.000000
  0.063500  0.071805  0.000000      4.000000
  0.095250  0.071805  0.000000      4.000000
  0.127000  0.071805  0.000000      4.000000
  0.000000  0.107707  0.000000      1.000000
  0.031750  0.107707  0.000000      2.000000
  0.063500  0.107707  0.000000      2.000000
  0.095250  0.107707  0.000000      2.000000
  0.127000  0.107707  0.000000      2.000000
 -0.000000 -0.000000  0.034824      2.000000
  0.031750 -0.000000  0.034824      4.000000
  0.063500 -0.000000  0.034824      4.000000
  0.095250 -0.000000  0.034824      4.000000
  0.127000 -0.000000  0.034824      4.000000
 -0.000000  0.035902  0.034824      4.000000
  0.031750  0.035902  0.034824      8.000000
  0.063500  0.035902  0.034824      8.000000
  0.095250  0.035902  0.034824      8.000000
  0.127000  0.035902  0.034824      8.000000
 -0.000000  0.071805  0.034824      4.000000
  0.031750  0.071805  0.034824      8.000000
  0.063500  0.071805  0.034824      8.000000
  0.095250  0.071805  0.034824      8.000000
  0.127000  0.071805  0.034824      8.000000
 -0.000000  0.107707  0.034824      2.000000
  0.031750  0.107707  0.034824      4.000000
  0.063500  0.107707  0.034824      4.000000
  0.095250  0.107707  0.034824      4.000000
  0.127000  0.107707  0.034824      4.000000
 -0.000000 -0.000000  0.069647      1.000000
  0.031750 -0.000000  0.069647      2.000000
  0.063500 -0.000000  0.069647      2.000000
  0.095250 -0.000000  0.069647      2.000000
  0.127000 -0.000000  0.069647      2.000000
 -0.000000  0.035902  0.069647      2.000000
  0.031750  0.035902  0.069647      4.000000
  0.063500  0.035902  0.069647      4.000000
  0.095250  0.035902  0.069647      4.000000
  0.127000  0.035902  0.069647      4.000000
 -0.000000  0.071805  0.069647      2.000000
  0.031750  0.071805  0.069647      4.000000
  0.063500  0.071805  0.069647      4.000000
  0.095250  0.071805  0.069647      4.000000
  0.127000  0.071805  0.069647      4.000000
 -0.000000  0.107707  0.069647      1.000000
  0.031750  0.107707  0.069647      2.000000
  0.063500  0.107707  0.069647      2.000000
  0.095250  0.107707  0.069647      2.000000
  0.127000  0.107707  0.069647      2.000000
 


--------------------------------------------------------------------------------------------------------




 Dimension of arrays:
   k-points           NKPTS =     60   k-points in BZ     NKDIM =     60   number of bands    NBANDS=     35
   number of dos      NEDOS =    301   number of ions     NIONS =      8
   non local maximal  LDIM  =      6   non local SUM 2l+1 LMDIM =     18
   total plane-waves  NPLWV =  34560
   max r-space proj   IRMAX =      1   max aug-charges    IRDMAX=  14336
   dimension x,y,z NGX =    24 NGY =   30 NGZ =   48
   dimension x,y,z NGXF=    48 NGYF=   60 NGZF=   96
   support grid    NGXF=    48 NGYF=   60 NGZF=   96
   ions per type =               2   2   2   2
   NGX,Y,Z   is equivalent  to a cutoff of  11.40, 10.74, 11.12 a.u.
   NGXF,Y,Z  is equivalent  to a cutoff of  22.80, 21.49, 22.23 a.u.

 SYSTEM =  DFT routine                             
 POSCAR =  Ca2 Fe2 B2 P2                           

 Startparameter for this run:
   NWRITE =      2    write-flag & timer
   PREC   = acc       normal or accurate (medium, high low for compatibility)
   ISTART =      0    job   : 0-new  1-cont  2-samecut
   ICHARG =      2    charge: 1-file 2-atom 10-const
   ISPIN  =      1    spin polarized calculation?
   LNONCOLLINEAR =      F non collinear calculations
   LSORBIT =      F    spin-orbit coupling
   INIWAV =      1    electr: 0-lowe 1-rand  2-diag
   LASPH  =      F    aspherical Exc in radial PAW
   METAGGA=      F    non-selfconsistent MetaGGA calc.

 Electronic Relaxation 1
   ENCUT  =  400.0 eV  29.40 Ry    5.42 a.u.   5.71  7.57 11.71*2*pi/ulx,y,z
   ENINI  =  400.0     initial cutoff
   ENAUG  =  535.5 eV  augmentation charge cutoff
   NELM   =    100;   NELMIN=  2; NELMDL= -5     # of ELM steps 
   EDIFF  = 0.1E-04   stopping-criterion for ELM
   LREAL  =      F    real-space projection
   NLSPLINE    = F    spline interpolate recip. space projectors
   LCOMPAT=      F    compatible to vasp.4.4
   GGA_COMPAT  = T    GGA compatible to vasp.4.4-vasp.4.6
   LMAXPAW     = -100 max onsite density
   LMAXMIX     =    2 max onsite mixed and CHGCAR
   VOSKOWN=      0    Vosko Wilk Nusair interpolation
   ROPT   =    0.00000   0.00000   0.00000   0.00000
 Ionic relaxation
   EDIFFG = 0.1E-03   stopping-criterion for IOM
   NSW    =      3    number of steps for IOM
   NBLOCK =      1;   KBLOCK =      3    inner block; outer block 
   IBRION =      1    ionic relax: 0-MD 1-quasi-New 2-CG
   NFREE  =      0    steps in history (QN), initial steepest desc. (CG)
   ISIF   =      3    stress and relaxation
   IWAVPR =     11    prediction:  0-non 1-charg 2-wave 3-comb
   ISYM   =      2    0-nonsym 1-usesym 2-fastsym
   LCORR  =      T    Harris-Foulkes like correction to forces

   POTIM  = 0.1000    time-step for ionic-motion
   TEIN   =    0.0    initial temperature
   TEBEG  =    0.0;   TEEND  =   0.0 temperature during run
   SMASS  =  -3.00    Nose mass-parameter (am)
   estimated Nose-frequenzy (Omega)   =  0.10E-29 period in steps =****** mass=  -0.280E-27a.u.
   SCALEE = 1.0000    scale energy and forces
   NPACO  =    256;   APACO  = 16.0  distance and # of slots for P.C.
   PSTRESS=    0.0 pullay stress

  Mass of Ions in am
   POMASS =  40.08 55.85 10.81 30.97
  Ionic Valenz
   ZVAL   =  10.00  8.00  3.00  5.00
  Atomic Wigner-Seitz radii
   RWIGS  =  -1.00 -1.00 -1.00 -1.00
  virtual crystal weights 
   VCA    =   1.00  1.00  1.00  1.00
   NELECT =      52.0000    total number of electrons
   NUPDOWN=      -1.0000    fix difference up-down

 DOS related values:
   EMIN   =  10.00;   EMAX   =-10.00  energy-range for DOS
   EFERMI =   0.00
   ISMEAR =     0;   SIGMA  =   0.01  broadening in eV -4-tet -1-fermi 0-gaus

 Electronic relaxation 2 (details)
   IALGO  =     38    algorithm
   LDIAG  =      T    sub-space diagonalisation (order eigenvalues)
   LSUBROT=      F    optimize rotation matrix (better conditioning)
   TURBO    =      0    0=normal 1=particle mesh
   IRESTART =      0    0=no restart 2=restart with 2 vectors
   NREBOOT  =      0    no. of reboots
   NMIN     =      0    reboot dimension
   EREF     =   0.00    reference energy to select bands
   IMIX   =      4    mixing-type and parameters
     AMIX     =   0.40;   BMIX     =  1.00
     AMIX_MAG =   1.60;   BMIX_MAG =  1.00
     AMIN     =   0.10
     WC   =   100.;   INIMIX=   1;  MIXPRE=   1;  MAXMIX= -45

 Intra band minimization:
   WEIMIN = 0.0010     energy-eigenvalue tresh-hold
   EBREAK =  0.71E-07  absolut break condition
   DEPER  =   0.30     relativ break condition  

   TIME   =   0.40     timestep for ELM

  volume/ion in A,a.u.               =      14.58        98.38
  Fermi-wavevector in a.u.,A,eV,Ry     =   1.250664  2.363412 21.281686  1.564160
  Thomas-Fermi vector in A             =   2.384647
 
 Write flags
   LWAVE        =      F    write WAVECAR
   LDOWNSAMPLE  =      F    k-point downsampling of WAVECAR
   LCHARG       =      F    write CHGCAR
   LVTOT        =      F    write LOCPOT, total local potential
   LVHAR        =      F    write LOCPOT, Hartree potential only
   LELF         =      F    write electronic localiz. function (ELF)
   LORBIT       =     10    0 simple, 1 ext, 2 COOP (PROOUT), +10 PAW based schemes


 Dipole corrections
   LMONO  =      F    monopole corrections only (constant potential shift)
   LDIPOL =      F    correct potential (dipole corrections)
   IDIPOL =      0    1-x, 2-y, 3-z, 4-all directions 
   EPSILON=  1.0000000 bulk dielectric constant

 Exchange correlation treatment:
   GGA     =    --    GGA type
   LEXCH   =     8    internal setting for exchange type
   VOSKOWN=      0    Vosko Wilk Nusair interpolation
   LHFCALC =     F    Hartree Fock is set to
   LHFONE  =     F    Hartree Fock one center treatment
   AEXX    =    0.0000 exact exchange contribution

 Linear response parameters
   LEPSILON=     F    determine dielectric tensor
   LRPA    =     F    only Hartree local field effects (RPA)
   LNABLA  =     F    use nabla operator in PAW spheres
   LVEL    =     F    velocity operator in full k-point grid
   LINTERFAST=   F  fast interpolation
   KINTER  =     0    interpolate to denser k-point grid
   CSHIFT  =0.1000    complex shift for real part using Kramers Kronig
   OMEGAMAX=  -1.0    maximum frequency
   DEG_THRESHOLD= 0.2000000E-02 threshold for treating states as degnerate
   RTIME   =   -0.100 relaxation time in fs
  (WPLASMAI=    0.000 imaginary part of plasma frequency in eV, 0.658/RTIME)
   DFIELD  = 0.0000000 0.0000000 0.0000000 field for delta impulse in time
 
 Orbital magnetization related:
   ORBITALMAG=     F  switch on orbital magnetization
   LCHIMAG   =     F  perturbation theory with respect to B field
   DQ        =  0.001000  dq finite difference perturbation B field
   LLRAUG    =     F  two centre corrections for induced B field



--------------------------------------------------------------------------------------------------------


 quasi-Newton-method for relaxation of ions
 charge density and potential will be updated during run
 non-spin polarized calculation
 Variant of blocked Davidson
 Davidson routine will perform the subspace rotation
 perform sub-space diagonalisation
    after iterative eigenvector-optimisation
 modified Broyden-mixing scheme, WC =      100.0
 initial mixing is a Kerker type mixing with AMIX =  0.4000 and BMIX =      1.0000
 Hartree-type preconditioning will be used
 using additional bands            9
 reciprocal scheme for non local part
 use partial core corrections
 calculate Harris-corrections to forces 
   (improved forces if not selfconsistent)
 use gradient corrections 
 use of overlap-Matrix (Vanderbilt PP)
 Gauss-broadening in eV      SIGMA  =   0.01


--------------------------------------------------------------------------------------------------------


  energy-cutoff  :      400.00
  volume of cell :      116.63
      direct lattice vectors                 reciprocal lattice vectors
     3.499570000  0.000000000  0.000000000     0.285749392 -0.000000000  0.000000000
     0.000000000  4.642220000  0.000000000     0.000000000  0.215414177  0.000000000
     0.000000000  0.000000000  7.179030000    -0.000000000 -0.000000000  0.139294584

  length of vectors
     3.499570000  4.642220000  7.179030000     0.285749392  0.215414177  0.139294584


 
 k-points in units of 2pi/SCALE and weight: Automatic mesh                          
   0.00000000  0.00000000  0.00000000       0.005
   0.03174993 -0.00000000  0.00000000       0.009
   0.06349986 -0.00000000  0.00000000       0.009
   0.09524980 -0.00000000  0.00000000       0.009
   0.12699973 -0.00000000  0.00000000       0.009
   0.00000000  0.03590236  0.00000000       0.009
   0.03174993  0.03590236  0.00000000       0.019
   0.06349986  0.03590236  0.00000000       0.019
   0.09524980  0.03590236  0.00000000       0.019
   0.12699973  0.03590236  0.00000000       0.019
   0.00000000  0.07180473  0.00000000       0.009
   0.03174993  0.07180473  0.00000000       0.019
   0.06349986  0.07180473  0.00000000       0.019
   0.09524980  0.07180473  0.00000000       0.019
   0.12699973  0.07180473  0.00000000       0.019
   0.00000000  0.10770709  0.00000000       0.005
   0.03174993  0.10770709  0.00000000       0.009
   0.06349986  0.10770709  0.00000000       0.009
   0.09524980  0.10770709  0.00000000       0.009
   0.12699973  0.10770709  0.00000000       0.009
  -0.00000000 -0.00000000  0.03482365       0.009
   0.03174993 -0.00000000  0.03482365       0.019
   0.06349986 -0.00000000  0.03482365       0.019
   0.09524980 -0.00000000  0.03482365       0.019
   0.12699973 -0.00000000  0.03482365       0.019
  -0.00000000  0.03590236  0.03482365       0.019
   0.03174993  0.03590236  0.03482365       0.037
   0.06349986  0.03590236  0.03482365       0.037
   0.09524980  0.03590236  0.03482365       0.037
   0.12699973  0.03590236  0.03482365       0.037
  -0.00000000  0.07180473  0.03482365       0.019
   0.03174993  0.07180473  0.03482365       0.037
   0.06349986  0.07180473  0.03482365       0.037
   0.09524980  0.07180473  0.03482365       0.037
   0.12699973  0.07180473  0.03482365       0.037
  -0.00000000  0.10770709  0.03482365       0.009
   0.03174993  0.10770709  0.03482365       0.019
   0.06349986  0.10770709  0.03482365       0.019
   0.09524980  0.10770709  0.03482365       0.019
   0.12699973  0.10770709  0.03482365       0.019
  -0.00000000 -0.00000000  0.06964729       0.005
   0.03174993 -0.00000000  0.06964729       0.009
   0.06349986 -0.00000000  0.06964729       0.009
   0.09524980 -0.00000000  0.06964729       0.009
   0.12699973 -0.00000000  0.06964729       0.009
  -0.00000000  0.03590236  0.06964729       0.009
   0.03174993  0.03590236  0.06964729       0.019
   0.06349986  0.03590236  0.06964729       0.019
   0.09524980  0.03590236  0.06964729       0.019
   0.12699973  0.03590236  0.06964729       0.019
  -0.00000000  0.07180473  0.06964729       0.009
   0.03174993  0.07180473  0.06964729       0.019
   0.06349986  0.07180473  0.06964729       0.019
   0.09524980  0.07180473  0.06964729       0.019
   0.12699973  0.07180473  0.06964729       0.019
  -0.00000000  0.10770709  0.06964729       0.005
   0.03174993  0.10770709  0.06964729       0.009
   0.06349986  0.10770709  0.06964729       0.009
   0.09524980  0.10770709  0.06964729       0.009
   0.12699973  0.10770709  0.06964729       0.009
 
 k-points in reciprocal lattice and weights: Automatic mesh                          
   0.00000000  0.00000000  0.00000000       0.005
   0.11111111  0.00000000  0.00000000       0.009
   0.22222222  0.00000000  0.00000000       0.009
   0.33333333  0.00000000  0.00000000       0.009
   0.44444444  0.00000000  0.00000000       0.009
   0.00000000  0.16666667  0.00000000       0.009
   0.11111111  0.16666667  0.00000000       0.019
   0.22222222  0.16666667  0.00000000       0.019
   0.33333333  0.16666667  0.00000000       0.019
   0.44444444  0.16666667  0.00000000       0.019
   0.00000000  0.33333333  0.00000000       0.009
   0.11111111  0.33333333  0.00000000       0.019
   0.22222222  0.33333333  0.00000000       0.019
   0.33333333  0.33333333  0.00000000       0.019
   0.44444444  0.33333333  0.00000000       0.019
   0.00000000  0.50000000  0.00000000       0.005
   0.11111111  0.50000000  0.00000000       0.009
   0.22222222  0.50000000  0.00000000       0.009
   0.33333333  0.50000000  0.00000000       0.009
   0.44444444  0.50000000  0.00000000       0.009
   0.00000000  0.00000000  0.25000000       0.009
   0.11111111  0.00000000  0.25000000       0.019
   0.22222222  0.00000000  0.25000000       0.019
   0.33333333  0.00000000  0.25000000       0.019
   0.44444444  0.00000000  0.25000000       0.019
   0.00000000  0.16666667  0.25000000       0.019
   0.11111111  0.16666667  0.25000000       0.037
   0.22222222  0.16666667  0.25000000       0.037
   0.33333333  0.16666667  0.25000000       0.037
   0.44444444  0.16666667  0.25000000       0.037
   0.00000000  0.33333333  0.25000000       0.019
   0.11111111  0.33333333  0.25000000       0.037
   0.22222222  0.33333333  0.25000000       0.037
   0.33333333  0.33333333  0.25000000       0.037
   0.44444444  0.33333333  0.25000000       0.037
   0.00000000  0.50000000  0.25000000       0.009
   0.11111111  0.50000000  0.25000000       0.019
   0.22222222  0.50000000  0.25000000       0.019
   0.33333333  0.50000000  0.25000000       0.019
   0.44444444  0.50000000  0.25000000       0.019
   0.00000000  0.00000000  0.50000000       0.005
   0.11111111  0.00000000  0.50000000       0.009
   0.22222222  0.00000000  0.50000000       0.009
   0.33333333  0.00000000  0.50000000       0.009
   0.44444444  0.00000000  0.50000000       0.009
   0.00000000  0.16666667  0.50000000       0.009
   0.11111111  0.16666667  0.50000000       0.019
   0.22222222  0.16666667  0.50000000       0.019
   0.33333333  0.16666667  0.50000000       0.019
   0.44444444  0.16666667  0.50000000       0.019
   0.00000000  0.33333333  0.50000000       0.009
   0.11111111  0.33333333  0.50000000       0.019
   0.22222222  0.33333333  0.50000000       0.019
   0.33333333  0.33333333  0.50000000       0.019
   0.44444444  0.33333333  0.50000000       0.019
   0.00000000  0.50000000  0.50000000       0.005
   0.11111111  0.50000000  0.50000000       0.009
   0.22222222  0.50000000  0.50000000       0.009
   0.33333333  0.50000000  0.50000000       0.009
   0.44444444  0.50000000  0.50000000       0.009
 
 position of ions in fractional coordinates (direct lattice) 
   0.00000000  0.00000000  0.25000000
   0.00000000  0.00000000  0.75000000
   0.50000000  0.50000000  0.75000000
   0.50000000  0.50000000  0.25000000
   0.50000000  0.50000000  0.00000000
   0.50000000  0.50000000  0.50000000
   0.00000000  0.50000000  0.00000000
   0.00000000  0.50000000  0.50000000
 
 position of ions in cartesian coordinates  (Angst):
   0.00000000  0.00000000  1.79475750
   0.00000000  0.00000000  5.38427250
   1.74978500  2.32111000  5.38427250
   1.74978500  2.32111000  1.79475750
   1.74978500  2.32111000  0.00000000
   1.74978500  2.32111000  3.58951500
   0.00000000  2.32111000  0.00000000
   0.00000000  2.32111000  3.58951500
 


--------------------------------------------------------------------------------------------------------


 k-point  1 :   0.0000 0.0000 0.0000  plane waves:    2107
 k-point  2 :   0.1111 0.0000 0.0000  plane waves:    2113
 k-point  3 :   0.2222 0.0000 0.0000  plane waves:    2125
 k-point  4 :   0.3333 0.0000 0.0000  plane waves:    2112
 k-point  5 :   0.4444 0.0000 0.0000  plane waves:    2134
 k-point  6 :   0.0000 0.1667 0.0000  plane waves:    2119
 k-point  7 :   0.1111 0.1667 0.0000  plane waves:    2130
 k-point  8 :   0.2222 0.1667 0.0000  plane waves:    2119
 k-point  9 :   0.3333 0.1667 0.0000  plane waves:    2116
 k-point 10 :   0.4444 0.1667 0.0000  plane waves:    2121
 k-point 11 :   0.0000 0.3333 0.0000  plane waves:    2121
 k-point 12 :   0.1111 0.3333 0.0000  plane waves:    2121
 k-point 13 :   0.2222 0.3333 0.0000  plane waves:    2112
 k-point 14 :   0.3333 0.3333 0.0000  plane waves:    2114
 k-point 15 :   0.4444 0.3333 0.0000  plane waves:    2125
 k-point 16 :   0.0000 0.5000 0.0000  plane waves:    2120
 k-point 17 :   0.1111 0.5000 0.0000  plane waves:    2114
 k-point 18 :   0.2222 0.5000 0.0000  plane waves:    2106
 k-point 19 :   0.3333 0.5000 0.0000  plane waves:    2122
 k-point 20 :   0.4444 0.5000 0.0000  plane waves:    2120
 k-point 21 :   0.0000 0.0000 0.2500  plane waves:    2137
 k-point 22 :   0.1111 0.0000 0.2500  plane waves:    2128
 k-point 23 :   0.2222 0.0000 0.2500  plane waves:    2110
 k-point 24 :   0.3333 0.0000 0.2500  plane waves:    2117
 k-point 25 :   0.4444 0.0000 0.2500  plane waves:    2116
 k-point 26 :   0.0000 0.1667 0.2500  plane waves:    2133
 k-point 27 :   0.1111 0.1667 0.2500  plane waves:    2127
 k-point 28 :   0.2222 0.1667 0.2500  plane waves:    2116
 k-point 29 :   0.3333 0.1667 0.2500  plane waves:    2114
 k-point 30 :   0.4444 0.1667 0.2500  plane waves:    2119
 k-point 31 :   0.0000 0.3333 0.2500  plane waves:    2121
 k-point 32 :   0.1111 0.3333 0.2500  plane waves:    2121
 k-point 33 :   0.2222 0.3333 0.2500  plane waves:    2114
 k-point 34 :   0.3333 0.3333 0.2500  plane waves:    2116
 k-point 35 :   0.4444 0.3333 0.2500  plane waves:    2111
 k-point 36 :   0.0000 0.5000 0.2500  plane waves:    2102
 k-point 37 :   0.1111 0.5000 0.2500  plane waves:    2102
 k-point 38 :   0.2222 0.5000 0.2500  plane waves:    2112
 k-point 39 :   0.3333 0.5000 0.2500  plane waves:    2118
 k-point 40 :   0.4444 0.5000 0.2500  plane waves:    2128
 k-point 41 :   0.0000 0.0000 0.5000  plane waves:    2156
 k-point 42 :   0.1111 0.0000 0.5000  plane waves:    2138
 k-point 43 :   0.2222 0.0000 0.5000  plane waves:    2122
 k-point 44 :   0.3333 0.0000 0.5000  plane waves:    2120
 k-point 45 :   0.4444 0.0000 0.5000  plane waves:    2104
 k-point 46 :   0.0000 0.1667 0.5000  plane waves:    2138
 k-point 47 :   0.1111 0.1667 0.5000  plane waves:    2130
 k-point 48 :   0.2222 0.1667 0.5000  plane waves:    2124
 k-point 49 :   0.3333 0.1667 0.5000  plane waves:    2122
 k-point 50 :   0.4444 0.1667 0.5000  plane waves:    2122
 k-point 51 :   0.0000 0.3333 0.5000  plane waves:    2120
 k-point 52 :   0.1111 0.3333 0.5000  plane waves:    2116
 k-point 53 :   0.2222 0.3333 0.5000  plane waves:    2110
 k-point 54 :   0.3333 0.3333 0.5000  plane waves:    2118
 k-point 55 :   0.4444 0.3333 0.5000  plane waves:    2114
 k-point 56 :   0.0000 0.5000 0.5000  plane waves:    2100
 k-point 57 :   0.1111 0.5000 0.5000  plane waves:    2116
 k-point 58 :   0.2222 0.5000 0.5000  plane waves:    2116
 k-point 59 :   0.3333 0.5000 0.5000  plane waves:    2112
 k-point 60 :   0.4444 0.5000 0.5000  plane waves:    2104

 maximum and minimum number of plane-waves per node :       324      290

 maximum number of plane-waves:      2156
 maximum index in each direction: 
   IXMAX=    5   IYMAX=    7   IZMAX=   11
   IXMIN=   -6   IYMIN=   -8   IZMIN=  -12


 parallel 3D FFT for wavefunctions:
    minimum data exchange during FFTs selected (reduces bandwidth)
 parallel 3D FFT for charge:
    minimum data exchange during FFTs selected (reduces bandwidth)


 total amount of memory used by VASP MPI-rank0    44677. kBytes
=======================================================================

   base      :      30000. kBytes
   nonl-proj :      10753. kBytes
   fftplans  :        534. kBytes
   grid      :       1075. kBytes
   one-center:         31. kBytes
   wavefun   :       2284. kBytes
 
     INWAV:  cpu time    0.0000: real time    0.0000
 Broyden mixing: mesh for mixing (old mesh)
   NGX = 11   NGY = 15   NGZ = 23
  (NGX  = 48   NGY  = 60   NGZ  = 96)
  gives a total of   3795 points

 initial charge density was supplied:
 charge density of overlapping atoms calculated
 number of electron      52.0000000 magnetization 
 keeping initial charge density in first step


--------------------------------------------------------------------------------------------------------


 Maximum index for augmentation-charges          854 (set IRDMAX)


--------------------------------------------------------------------------------------------------------


 First call to EWALD:  gamma=   0.363
 Maximum number of real-space cells 4x 3x 2
 Maximum number of reciprocal cells 2x 3x 4

    FEWALD:  cpu time    0.0014: real time    0.0014


--------------------------------------- Iteration      1(   1)  ---------------------------------------


    POTLOK:  cpu time    0.0140: real time    0.0140
    SETDIJ:  cpu time    0.0036: real time    0.0036
     EDDAV:  cpu time    0.9914: real time    0.9914
       DOS:  cpu time    0.0022: real time    0.0022
    --------------------------------------------
      LOOP:  cpu time    1.0112: real time    1.0112

 eigenvalue-minimisations  :  4200
 total energy-change (2. order) : 0.4223473E+03  (-0.2062969E+04)
 number of electron      52.0000000 magnetization 
 augmentation part       52.0000000 magnetization 

 Free energy of the ion-electron system (eV)
  ---------------------------------------------------
  alpha Z        PSCENC =       228.56959526
  Ewald energy   TEWEN  =     -2976.06588353
  -Hartree energ DENC   =      -857.67326091
  -exchange      EXHF   =         0.00000000
  -V(xc)+E(xc)   XCENC  =       116.34806238
  PAW double counting   =      2968.40852088    -2945.74066407
  entropy T*S    EENTRO =        -0.00012122
  eigenvalues    EBANDS =       193.29979585
  atomic energy  EATOM  =      3695.20123917
  Solvation  Ediel_sol  =         0.00000000
  ---------------------------------------------------
  free energy    TOTEN  =       422.34728380 eV

  energy without entropy =      422.34740502  energy(sigma->0) =      422.34734441


--------------------------------------------------------------------------------------------------------




--------------------------------------- Iteration      1(   2)  ---------------------------------------


     EDDAV:  cpu time    0.9604: real time    0.9604
       DOS:  cpu time    0.0023: real time    0.0023
    --------------------------------------------
      LOOP:  cpu time    0.9627: real time    0.9627

 eigenvalue-minimisations  :  4215
 total energy-change (2. order) :-0.4291628E+03  (-0.4174175E+03)
 number of electron      52.0000000 magnetization 
 augmentation part       52.0000000 magnetization 

 Free energy of the ion-electron system (eV)
  ---------------------------------------------------
  alpha Z        PSCENC =       228.56959526
  Ewald energy   TEWEN  =     -2976.06588353
  -Hartree energ DENC   =      -857.67326091
  -exchange      EXHF   =         0.00000000
  -V(xc)+E(xc)   XCENC  =       116.34806238
  PAW double counting   =      2968.40852088    -2945.74066407
  entropy T*S    EENTRO =        -0.00038748
  eigenvalues    EBANDS =      -235.86272310
  atomic energy  EATOM  =      3695.20123917
  Solvation  Ediel_sol  =         0.00000000
  ---------------------------------------------------
  free energy    TOTEN  =        -6.81550141 eV

  energy without entropy =       -6.81511393  energy(sigma->0) =       -6.81530767


--------------------------------------------------------------------------------------------------------




--------------------------------------- Iteration      1(   3)  ---------------------------------------


     EDDAV:  cpu time    1.4030: real time    1.4031
       DOS:  cpu time    0.0022: real time    0.0022
    --------------------------------------------
      LOOP:  cpu time    1.4052: real time    1.4053

 eigenvalue-minimisations  :  6950
 total energy-change (2. order) :-0.3756090E+02  (-0.3624283E+02)
 number of electron      52.0000000 magnetization 
 augmentation part       52.0000000 magnetization 

 Free energy of the ion-electron system (eV)
  ---------------------------------------------------
  alpha Z        PSCENC =       228.56959526
  Ewald energy   TEWEN  =     -2976.06588353
  -Hartree energ DENC   =      -857.67326091
  -exchange      EXHF   =         0.00000000
  -V(xc)+E(xc)   XCENC  =       116.34806238
  PAW double counting   =      2968.40852088    -2945.74066407
  entropy T*S    EENTRO =        -0.00064072
  eigenvalues    EBANDS =      -273.42336766
  atomic energy  EATOM  =      3695.20123917
  Solvation  Ediel_sol  =         0.00000000
  ---------------------------------------------------
  free energy    TOTEN  =       -44.37639922 eV

  energy without entropy =      -44.37575849  energy(sigma->0) =      -44.37607885


--------------------------------------------------------------------------------------------------------




--------------------------------------- Iteration      1(   4)  ---------------------------------------


     EDDAV:  cpu time    1.3961: real time    1.3962
       DOS:  cpu time    0.0023: real time    0.0023
    --------------------------------------------
      LOOP:  cpu time    1.3984: real time    1.3985

 eigenvalue-minimisations  :  6785
 total energy-change (2. order) :-0.2734274E+01  (-0.2694383E+01)
 number of electron      52.0000000 magnetization 
 augmentation part       52.0000000 magnetization 

 Free energy of the ion-electron system (eV)
  ---------------------------------------------------
  alpha Z        PSCENC =       228.56959526
  Ewald energy   TEWEN  =     -2976.06588353
  -Hartree energ DENC   =      -857.67326091
  -exchange      EXHF   =         0.00000000
  -V(xc)+E(xc)   XCENC  =       116.34806238
  PAW double counting   =      2968.40852088    -2945.74066407
  entropy T*S    EENTRO =        -0.00057487
  eigenvalues    EBANDS =      -276.15770772
  atomic energy  EATOM  =      3695.20123917
  Solvation  Ediel_sol  =         0.00000000
  ---------------------------------------------------
  free energy    TOTEN  =       -47.11067342 eV

  energy without entropy =      -47.11009855  energy(sigma->0) =      -47.11038599


--------------------------------------------------------------------------------------------------------




--------------------------------------- Iteration      1(   5)  ---------------------------------------


     EDDAV:  cpu time    1.3751: real time    1.3752
       DOS:  cpu time    0.0023: real time    0.0023
    CHARGE:  cpu time    0.0409: real time    0.0409
    MIXING:  cpu time    0.0005: real time    0.0005
    --------------------------------------------
      LOOP:  cpu time    1.4188: real time    1.4188

 eigenvalue-minimisations  :  6780
 total energy-change (2. order) :-0.1034309E+00  (-0.1032345E+00)
 number of electron      52.0000002 magnetization 
 augmentation part       10.3643174 magnetization 

 Broyden mixing:
  rms(total) = 0.30256E+01    rms(broyden)= 0.30254E+01
  rms(prec ) = 0.41244E+01
  weight for this iteration     100.00

 Free energy of the ion-electron system (eV)
  ---------------------------------------------------
  alpha Z        PSCENC =       228.56959526
  Ewald energy   TEWEN  =     -2976.06588353
  -Hartree energ DENC   =      -857.67326091
  -exchange      EXHF   =         0.00000000
  -V(xc)+E(xc)   XCENC  =       116.34806238
  PAW double counting   =      2968.40852088    -2945.74066407
  entropy T*S    EENTRO =        -0.00052890
  eigenvalues    EBANDS =      -276.26118463
  atomic energy  EATOM  =      3695.20123917
  Solvation  Ediel_sol  =         0.00000000
  ---------------------------------------------------
  free energy    TOTEN  =       -47.21410435 eV

  energy without entropy =      -47.21357545  energy(sigma->0) =      -47.21383990


--------------------------------------------------------------------------------------------------------




--------------------------------------- Iteration      1(   6)  ---------------------------------------


    POTLOK:  cpu time    0.0090: real time    0.0090
    SETDIJ:  cpu time    0.0026: real time    0.0026
     EDDAV:  cpu time    1.2387: real time    1.2387
       DOS:  cpu time    0.0021: real time    0.0021
    CHARGE:  cpu time    0.0408: real time    0.0408
    MIXING:  cpu time    0.0005: real time    0.0005
    --------------------------------------------
      LOOP:  cpu time    1.2937: real time    1.2937

 eigenvalue-minimisations  :  6130
 total energy-change (2. order) :-0.1987120E+02  (-0.2580852E+02)
 number of electron      51.9999998 magnetization 
 augmentation part       17.9110337 magnetization 

 Broyden mixing:
  rms(total) = 0.49214E+01    rms(broyden)= 0.49212E+01
  rms(prec ) = 0.73101E+01
  weight for this iteration     100.00

 eigenvalues of (default mixing * dielectric matrix)
  average eigenvalue GAMMA=   0.3073
  0.3073

 Free energy of the ion-electron system (eV)
  ---------------------------------------------------
  alpha Z        PSCENC =       228.56959526
  Ewald energy   TEWEN  =     -2976.06588353
  -Hartree energ DENC   =      -798.91006688
  -exchange      EXHF   =         0.00000000
  -V(xc)+E(xc)   XCENC  =       114.62422064
  PAW double counting   =      3734.15524269    -3708.31334958
  entropy T*S    EENTRO =        -0.00016645
  eigenvalues    EBANDS =      -356.34613791
  atomic energy  EATOM  =      3695.20123917
  Solvation  Ediel_sol  =         0.00000000
  ---------------------------------------------------
  free energy    TOTEN  =       -67.08530660 eV

  energy without entropy =      -67.08514015  energy(sigma->0) =      -67.08522338


--------------------------------------------------------------------------------------------------------




--------------------------------------- Iteration      1(   7)  ---------------------------------------


    POTLOK:  cpu time    0.0088: real time    0.0088
    SETDIJ:  cpu time    0.0027: real time    0.0027
     EDDAV:  cpu time    1.2465: real time    1.2465
       DOS:  cpu time    0.0022: real time    0.0022
    CHARGE:  cpu time    0.0401: real time    0.0401
    MIXING:  cpu time    0.0005: real time    0.0005
    --------------------------------------------
      LOOP:  cpu time    1.3007: real time    1.3008

 eigenvalue-minimisations  :  6170
 total energy-change (2. order) : 0.2666030E+02  (-0.8645480E+01)
 number of electron      51.9999999 magnetization 
 augmentation part       13.5482705 magnetization 

 Broyden mixing:
  rms(total) = 0.10430E+01    rms(broyden)= 0.10426E+01
  rms(prec ) = 0.14181E+01
  weight for this iteration     100.00

 eigenvalues of (default mixing * dielectric matrix)
  average eigenvalue GAMMA=   0.6153
  0.8860  0.3446

 Free energy of the ion-electron system (eV)
  ---------------------------------------------------
  alpha Z        PSCENC =       228.56959526
  Ewald energy   TEWEN  =     -2976.06588353
  -Hartree energ DENC   =      -844.91724707
  -exchange      EXHF   =         0.00000000
  -V(xc)+E(xc)   XCENC  =       116.26614697
  PAW double counting   =      4038.62750498    -4025.25001268
  entropy T*S    EENTRO =        -0.00028099
  eigenvalues    EBANDS =      -272.85607155
  atomic energy  EATOM  =      3695.20123917
  Solvation  Ediel_sol  =         0.00000000
  ---------------------------------------------------
  free energy    TOTEN  =       -40.42500944 eV

  energy without entropy =      -40.42472845  energy(sigma->0) =      -40.42486895


--------------------------------------------------------------------------------------------------------




--------------------------------------- Iteration      1(   8)  ---------------------------------------


    POTLOK:  cpu time    0.0088: real time    0.0088
    SETDIJ:  cpu time    0.0027: real time    0.0027
     EDDAV:  cpu time    1.3720: real time    1.3720
       DOS:  cpu time    0.0023: real time    0.0023
    CHARGE:  cpu time    0.0408: real time    0.0471
    MIXING:  cpu time    0.0005: real time    0.0005
    --------------------------------------------
      LOOP:  cpu time    1.4272: real time    1.4334

 eigenvalue-minimisations  :  6940
 total energy-change (2. order) :-0.9839403E+00  (-0.2009377E+01)
 number of electron      51.9999999 magnetization 
 augmentation part       11.6422244 magnetization 

 Broyden mixing:
  rms(total) = 0.93029E+00    rms(broyden)= 0.93017E+00
  rms(prec ) = 0.14410E+01
  weight for this iteration     100.00

 eigenvalues of (default mixing * dielectric matrix)
  average eigenvalue GAMMA=   0.8627
  1.7177  0.4352  0.4352

 Free energy of the ion-electron system (eV)
  ---------------------------------------------------
  alpha Z        PSCENC =       228.56959526
  Ewald energy   TEWEN  =     -2976.06588353
  -Hartree energ DENC   =      -852.75193861
  -exchange      EXHF   =         0.00000000
  -V(xc)+E(xc)   XCENC  =       116.48930782
  PAW double counting   =      4773.93329736    -4765.48207404
  entropy T*S    EENTRO =        -0.00056711
  eigenvalues    EBANDS =      -261.30192609
  atomic energy  EATOM  =      3695.20123917
  Solvation  Ediel_sol  =         0.00000000
  ---------------------------------------------------
  free energy    TOTEN  =       -41.40894978 eV

  energy without entropy =      -41.40838267  energy(sigma->0) =      -41.40866623


--------------------------------------------------------------------------------------------------------




--------------------------------------- Iteration      1(   9)  ---------------------------------------


    POTLOK:  cpu time    0.0089: real time    0.0089
    SETDIJ:  cpu time    0.0026: real time    0.0026
     EDDAV:  cpu time    1.3065: real time    1.3066
       DOS:  cpu time    0.0022: real time    0.0022
    CHARGE:  cpu time    0.0405: real time    0.0405
    MIXING:  cpu time    0.0005: real time    0.0005
    --------------------------------------------
      LOOP:  cpu time    1.3612: real time    1.3613

 eigenvalue-minimisations  :  6600
 total energy-change (2. order) : 0.5084209E+00  (-0.4652968E+00)
 number of electron      51.9999999 magnetization 
 augmentation part       12.8506402 magnetization 

 Broyden mixing:
  rms(total) = 0.26644E+00    rms(broyden)= 0.26633E+00
  rms(prec ) = 0.39773E+00
  weight for this iteration     100.00

 eigenvalues of (default mixing * dielectric matrix)
  average eigenvalue GAMMA=   0.8117
  1.5285  0.8905  0.4138  0.4138

 Free energy of the ion-electron system (eV)
  ---------------------------------------------------
  alpha Z        PSCENC =       228.56959526
  Ewald energy   TEWEN  =     -2976.06588353
  -Hartree energ DENC   =      -845.55393652
  -exchange      EXHF   =         0.00000000
  -V(xc)+E(xc)   XCENC  =       116.34984688
  PAW double counting   =      5277.10076581    -5271.07263535
  entropy T*S    EENTRO =        -0.00039793
  eigenvalues    EBANDS =      -265.42912268
  atomic energy  EATOM  =      3695.20123917
  Solvation  Ediel_sol  =         0.00000000
  ---------------------------------------------------
  free energy    TOTEN  =       -40.90052888 eV

  energy without entropy =      -40.90013096  energy(sigma->0) =      -40.90032992


--------------------------------------------------------------------------------------------------------




--------------------------------------- Iteration      1(  10)  ---------------------------------------


    POTLOK:  cpu time    0.0089: real time    0.0089
    SETDIJ:  cpu time    0.0027: real time    0.0027
     EDDAV:  cpu time    1.2515: real time    1.2515
       DOS:  cpu time    0.0022: real time    0.0022
    CHARGE:  cpu time    0.0405: real time    0.0405
    MIXING:  cpu time    0.0005: real time    0.0005
    --------------------------------------------
      LOOP:  cpu time    1.3063: real time    1.3063

 eigenvalue-minimisations  :  6165
 total energy-change (2. order) : 0.3813577E-01  (-0.1479000E-01)
 number of electron      51.9999999 magnetization 
 augmentation part       12.7297709 magnetization 

 Broyden mixing:
  rms(total) = 0.15970E+00    rms(broyden)= 0.15969E+00
  rms(prec ) = 0.21828E+00
  weight for this iteration     100.00

 eigenvalues of (default mixing * dielectric matrix)
  average eigenvalue GAMMA=   1.0701
  1.9959  1.6561  0.8612  0.4185  0.4185

 Free energy of the ion-electron system (eV)
  ---------------------------------------------------
  alpha Z        PSCENC =       228.56959526
  Ewald energy   TEWEN  =     -2976.06588353
  -Hartree energ DENC   =      -846.99135292
  -exchange      EXHF   =         0.00000000
  -V(xc)+E(xc)   XCENC  =       116.42123742
  PAW double counting   =      5299.89773786    -5294.33188667
  entropy T*S    EENTRO =        -0.00010456
  eigenvalues    EBANDS =      -263.56297513
  atomic energy  EATOM  =      3695.20123917
  Solvation  Ediel_sol  =         0.00000000
  ---------------------------------------------------
  free energy    TOTEN  =       -40.86239311 eV

  energy without entropy =      -40.86228855  energy(sigma->0) =      -40.86234083


--------------------------------------------------------------------------------------------------------




--------------------------------------- Iteration      1(  11)  ---------------------------------------


    POTLOK:  cpu time    0.0088: real time    0.0088
    SETDIJ:  cpu time    0.0026: real time    0.0026
     EDDAV:  cpu time    1.3636: real time    1.3637
       DOS:  cpu time    0.0022: real time    0.0022
    CHARGE:  cpu time    0.0405: real time    0.0406
    MIXING:  cpu time    0.0006: real time    0.0005
    --------------------------------------------
      LOOP:  cpu time    1.4183: real time    1.4184

 eigenvalue-minimisations  :  6665
 total energy-change (2. order) : 0.1364934E-01  (-0.4984375E-02)
 number of electron      51.9999999 magnetization 
 augmentation part       12.6482623 magnetization 

 Broyden mixing:
  rms(total) = 0.57780E-01    rms(broyden)= 0.57765E-01
  rms(prec ) = 0.72339E-01
  weight for this iteration     100.00

 eigenvalues of (default mixing * dielectric matrix)
  average eigenvalue GAMMA=   1.0616
  2.0803  1.5923  0.4181  0.4181  1.0085  0.8523

 Free energy of the ion-electron system (eV)
  ---------------------------------------------------
  alpha Z        PSCENC =       228.56959526
  Ewald energy   TEWEN  =     -2976.06588353
  -Hartree energ DENC   =      -848.03650690
  -exchange      EXHF   =         0.00000000
  -V(xc)+E(xc)   XCENC  =       116.47767377
  PAW double counting   =      5359.27274055    -5354.10295965
  entropy T*S    EENTRO =        -0.00025303
  eigenvalues    EBANDS =      -262.16438941
  atomic energy  EATOM  =      3695.20123917
  Solvation  Ediel_sol  =         0.00000000
  ---------------------------------------------------
  free energy    TOTEN  =       -40.84874377 eV

  energy without entropy =      -40.84849075  energy(sigma->0) =      -40.84861726


--------------------------------------------------------------------------------------------------------




--------------------------------------- Iteration      1(  12)  ---------------------------------------


    POTLOK:  cpu time    0.0089: real time    0.0089
    SETDIJ:  cpu time    0.0027: real time    0.0027
     EDDAV:  cpu time    1.2365: real time    1.2366
       DOS:  cpu time    0.0022: real time    0.0022
    CHARGE:  cpu time    0.0405: real time    0.0405
    MIXING:  cpu time    0.0006: real time    0.0006
    --------------------------------------------
      LOOP:  cpu time    1.2914: real time    1.2915

 eigenvalue-minimisations  :  6085
 total energy-change (2. order) :-0.1831565E-03  (-0.3157030E-03)
 number of electron      51.9999999 magnetization 
 augmentation part       12.6428076 magnetization 

 Broyden mixing:
  rms(total) = 0.43570E-01    rms(broyden)= 0.43570E-01
  rms(prec ) = 0.58731E-01
  weight for this iteration     100.00

 eigenvalues of (default mixing * dielectric matrix)
  average eigenvalue GAMMA=   1.1777
  2.0318  2.0318  1.4982  0.4183  0.4183  0.9228  0.9228

 Free energy of the ion-electron system (eV)
  ---------------------------------------------------
  alpha Z        PSCENC =       228.56959526
  Ewald energy   TEWEN  =     -2976.06588353
  -Hartree energ DENC   =      -848.33283301
  -exchange      EXHF   =         0.00000000
  -V(xc)+E(xc)   XCENC  =       116.49375514
  PAW double counting   =      5375.13010977    -5369.89049912
  entropy T*S    EENTRO =        -0.00022067
  eigenvalues    EBANDS =      -261.95418994
  atomic energy  EATOM  =      3695.20123917
  Solvation  Ediel_sol  =         0.00000000
  ---------------------------------------------------
  free energy    TOTEN  =       -40.84892693 eV

  energy without entropy =      -40.84870626  energy(sigma->0) =      -40.84881660


--------------------------------------------------------------------------------------------------------




--------------------------------------- Iteration      1(  13)  ---------------------------------------


    POTLOK:  cpu time    0.0089: real time    0.0089
    SETDIJ:  cpu time    0.0026: real time    0.0026
     EDDAV:  cpu time    1.2739: real time    1.2740
       DOS:  cpu time    0.0021: real time    0.0021
    CHARGE:  cpu time    0.0405: real time    0.0405
    MIXING:  cpu time    0.0006: real time    0.0006
    --------------------------------------------
      LOOP:  cpu time    1.3286: real time    1.3287

 eigenvalue-minimisations  :  6340
 total energy-change (2. order) : 0.3934307E-03  (-0.1328750E-03)
 number of electron      51.9999999 magnetization 
 augmentation part       12.6218151 magnetization 

 Broyden mixing:
  rms(total) = 0.18378E-01    rms(broyden)= 0.18377E-01
  rms(prec ) = 0.25223E-01
  weight for this iteration     100.00

 eigenvalues of (default mixing * dielectric matrix)
  average eigenvalue GAMMA=   1.2381
  2.2957  2.2957  0.4183  0.4183  1.3647  1.3647  0.8736  0.8736

 Free energy of the ion-electron system (eV)
  ---------------------------------------------------
  alpha Z        PSCENC =       228.56959526
  Ewald energy   TEWEN  =     -2976.06588353
  -Hartree energ DENC   =      -848.77958175
  -exchange      EXHF   =         0.00000000
  -V(xc)+E(xc)   XCENC  =       116.51550500
  PAW double counting   =      5389.13898273    -5383.78485487
  entropy T*S    EENTRO =        -0.00027677
  eigenvalues    EBANDS =      -261.64325873
  atomic energy  EATOM  =      3695.20123917
  Solvation  Ediel_sol  =         0.00000000
  ---------------------------------------------------
  free energy    TOTEN  =       -40.84853350 eV

  energy without entropy =      -40.84825673  energy(sigma->0) =      -40.84839511


--------------------------------------------------------------------------------------------------------




--------------------------------------- Iteration      1(  14)  ---------------------------------------


    POTLOK:  cpu time    0.0089: real time    0.0089
    SETDIJ:  cpu time    0.0026: real time    0.0026
     EDDAV:  cpu time    1.3252: real time    1.3252
       DOS:  cpu time    0.0022: real time    0.0022
    CHARGE:  cpu time    0.0406: real time    0.0406
    MIXING:  cpu time    0.0007: real time    0.0007
    --------------------------------------------
      LOOP:  cpu time    1.3803: real time    1.3804

 eigenvalue-minimisations  :  6560
 total energy-change (2. order) : 0.8604136E-04  (-0.4057226E-04)
 number of electron      51.9999999 magnetization 
 augmentation part       12.6114866 magnetization 

 Broyden mixing:
  rms(total) = 0.68494E-02    rms(broyden)= 0.68489E-02
  rms(prec ) = 0.89846E-02
  weight for this iteration     100.00

 eigenvalues of (default mixing * dielectric matrix)
  average eigenvalue GAMMA=   1.3047
  2.7492  2.4209  1.5025  1.5025  0.4183  0.4183  0.9399  0.9399  0.8507

 Free energy of the ion-electron system (eV)
  ---------------------------------------------------
  alpha Z        PSCENC =       228.56959526
  Ewald energy   TEWEN  =     -2976.06588353
  -Hartree energ DENC   =      -848.92862228
  -exchange      EXHF   =         0.00000000
  -V(xc)+E(xc)   XCENC  =       116.52238792
  PAW double counting   =      5394.22433300    -5388.82853774
  entropy T*S    EENTRO =        -0.00028945
  eigenvalues    EBANDS =      -261.54266981
  atomic energy  EATOM  =      3695.20123917
  Solvation  Ediel_sol  =         0.00000000
  ---------------------------------------------------
  free energy    TOTEN  =       -40.84844746 eV

  energy without entropy =      -40.84815801  energy(sigma->0) =      -40.84830274


--------------------------------------------------------------------------------------------------------




--------------------------------------- Iteration      1(  15)  ---------------------------------------


    POTLOK:  cpu time    0.0089: real time    0.0089
    SETDIJ:  cpu time    0.0026: real time    0.0026
     EDDAV:  cpu time    1.2027: real time    1.2027
       DOS:  cpu time    0.0022: real time    0.0022
    --------------------------------------------
      LOOP:  cpu time    1.2164: real time    1.2164

 eigenvalue-minimisations  :  5655
 total energy-change (2. order) : 0.7616258E-05  (-0.7628786E-05)
 number of electron      51.9999999 magnetization 
 augmentation part       12.6114866 magnetization 

 Free energy of the ion-electron system (eV)
  ---------------------------------------------------
  alpha Z        PSCENC =       228.56959526
  Ewald energy   TEWEN  =     -2976.06588353
  -Hartree energ DENC   =      -849.01658431
  -exchange      EXHF   =         0.00000000
  -V(xc)+E(xc)   XCENC  =       116.52613359
  PAW double counting   =      5396.09231552    -5390.66746581
  entropy T*S    EENTRO =        -0.00029648
  eigenvalues    EBANDS =      -261.48749324
  atomic energy  EATOM  =      3695.20123917
  Solvation  Ediel_sol  =         0.00000000
  ---------------------------------------------------
  free energy    TOTEN  =       -40.84843984 eV

  energy without entropy =      -40.84814337  energy(sigma->0) =      -40.84829160


--------------------------------------------------------------------------------------------------------




 average (electrostatic) potential at core
  the test charge radii are     1.1137  1.0103  0.7672  0.9587
  (the norm of the test charge is              1.0000)
       1 -43.3408       2 -43.3408       3 -42.4110       4 -42.4110       5 -26.9186
       6 -26.9186       7 -83.4705       8 -83.4705
 
 
 
 E-fermi :   6.3402     XC(G=0): -10.6982     alpha+bet :-13.4781


 k-point     1 :       0.0000    0.0000    0.0000
  band No.  band energies     occupation 
      1     -34.5595      2.00000
      2     -34.5432      2.00000
      3     -15.8809      2.00000
      4     -15.6590      2.00000
      5     -15.6120      2.00000
      6     -15.5760      2.00000
      7     -15.4818      2.00000
      8     -15.4646      2.00000
      9      -8.3290      2.00000
     10      -7.2531      2.00000
     11      -1.5946      2.00000
     12      -1.4333      2.00000
     13      -0.7201      2.00000
     14       0.3715      2.00000
     15       1.1804      2.00000
     16       1.9381      2.00000
     17       2.3466      2.00000
     18       2.8343      2.00000
     19       3.8033      2.00000
     20       4.6542      2.00000
     21       4.7413      2.00000
     22       5.1259      2.00000
     23       5.3930      2.00000
     24       5.5991      2.00000
     25       6.1928      2.00000
     26       6.3364      1.41004
     27       6.3374      1.31044
     28       7.3449      0.00000
     29       7.4625      0.00000
     30       8.1971      0.00000
     31       8.8876      0.00000
     32       9.0605      0.00000
     33       9.8281      0.00000
     34       9.9093      0.00000
     35      10.3265      0.00000

 k-point     2 :       0.1111    0.0000    0.0000
  band No.  band energies     occupation 
      1     -34.5570      2.00000
      2     -34.5408      2.00000
      3     -15.8768      2.00000
      4     -15.6565      2.00000
      5     -15.6091      2.00000
      6     -15.5735      2.00000
      7     -15.5119      2.00000
      8     -15.4931      2.00000
      9      -8.2172      2.00000
     10      -7.1869      2.00000
     11      -1.6995      2.00000
     12      -1.4469      2.00000
     13      -1.3703      2.00000
     14       0.4994      2.00000
     15       1.2912      2.00000
     16       2.3386      2.00000
     17       2.4962      2.00000
     18       2.7881      2.00000
     19       3.9639      2.00000
     20       4.7086      2.00000
     21       4.8411      2.00000
     22       5.1592      2.00000
     23       5.3230      2.00000
     24       5.5761      2.00000
     25       6.1296      2.00000
     26       6.3524      0.08640
     27       6.3542      0.04788
     28       7.6156      0.00000
     29       7.7064      0.00000
     30       8.1208      0.00000
     31       8.6826      0.00000
     32       8.8435      0.00000
     33       9.6125      0.00000
     34       9.6959      0.00000
     35       9.8840      0.00000

 k-point     3 :       0.2222    0.0000    0.0000
  band No.  band energies     occupation 
      1     -34.5508      2.00000
      2     -34.5347      2.00000
      3     -15.8664      2.00000
      4     -15.6501      2.00000
      5     -15.6017      2.00000
      6     -15.5871      2.00000
      7     -15.5671      2.00000
      8     -15.5646      2.00000
      9      -7.8922      2.00000
     10      -7.0004      2.00000
     11      -2.5663      2.00000
     12      -2.3319      2.00000
     13      -1.0147      2.00000
     14       0.8802      2.00000
     15       1.6191      2.00000
     16       2.3195      2.00000
     17       2.6052      2.00000
     18       3.4474      2.00000
     19       4.3974      2.00000
     20       4.8546      2.00000
     21       5.0826      2.00000
     22       5.0856      2.00000
     23       5.2462      2.00000
     24       5.4880      2.00000
     25       5.5208      2.00000
     26       6.3199      1.99595
     27       6.6692      0.00000
     28       7.7436      0.00000
     29       7.9253      0.00000
     30       8.1497      0.00000
     31       8.2578      0.00000
     32       8.4025      0.00000
     33       8.6382      0.00000
     34       9.1693      0.00000
     35       9.9598      0.00000

 k-point     4 :       0.3333    0.0000    0.0000
  band No.  band energies     occupation 
      1     -34.5437      2.00000
      2     -34.5278      2.00000
      3     -15.8545      2.00000
      4     -15.6711      2.00000
      5     -15.6447      2.00000
      6     -15.6428      2.00000
      7     -15.5933      2.00000
      8     -15.5599      2.00000
      9      -7.3981      2.00000
     10      -6.7411      2.00000
     11      -3.7412      2.00000
     12      -3.0228      2.00000
     13      -0.3331      2.00000
     14       1.5031      2.00000
     15       2.1451      2.00000
     16       2.1721      2.00000
     17       2.2995      2.00000
     18       4.3222      2.00000
     19       4.4997      2.00000
     20       4.5907      2.00000
     21       4.9861      2.00000
     22       5.0401      2.00000
     23       5.3371      2.00000
     24       5.3503      2.00000
     25       5.4633      2.00000
     26       6.2531      2.00000
     27       6.7212      0.00000
     28       6.8990      0.00000
     29       7.2998      0.00000
     30       7.7138      0.00000
     31       7.9983      0.00000
     32       8.2547      0.00000
     33       9.0942      0.00000
     34       9.4368      0.00000
     35       9.5128      0.00000

 k-point     5 :       0.4444    0.0000    0.0000
  band No.  band energies     occupation 
      1     -34.5391      2.00000
      2     -34.5233      2.00000
      3     -15.8467      2.00000
      4     -15.7251      2.00000
      5     -15.6963      2.00000
      6     -15.6381      2.00000
      7     -15.5878      2.00000
      8     -15.5551      2.00000
      9      -6.8997      2.00000
     10      -6.5268      2.00000
     11      -4.5991      2.00000
     12      -3.4878      2.00000
     13       0.5263      2.00000
     14       1.4326      2.00000
     15       2.2873      2.00000
     16       2.3366      2.00000
     17       2.7850      2.00000
     18       3.4100      2.00000
     19       3.9057      2.00000
     20       4.8678      2.00000
     21       5.1765      2.00000
     22       5.4216      2.00000
     23       5.4289      2.00000
[...]
     33       8.0378      0.00000
     34       8.0378      0.00000
     35       8.6376      0.00000

 k-point    55 :       0.4444    0.3333    0.5000
  band No.  band energies     occupation 
      1     -35.8362      2.00000
      2     -35.8362      2.00000
      3     -16.9885      2.00000
      4     -16.9885      2.00000
      5     -16.9200      2.00000
      6     -16.9200      2.00000
      7     -16.8615      2.00000
      8     -16.8615      2.00000
      9      -7.0461      2.00000
     10      -7.0461      2.00000
     11      -4.4708      2.00000
     12      -4.4708      2.00000
     13       0.9942      2.00000
     14       0.9942      2.00000
     15       1.5736      2.00000
     16       1.5736      2.00000
     17       2.1777      2.00000
     18       2.1777      2.00000
     19       2.5229      2.00000
     20       2.5229      2.00000
     21       4.1450      2.00000
     22       4.1450      2.00000
     23       4.7145      2.00000
     24       4.7145      2.00000
     25       4.9033      2.00000
     26       4.9033      2.00000
     27       5.4162      0.00000
     28       5.4162      0.00000
     29       5.6490      0.00000
     30       5.6490      0.00000
     31       7.6782      0.00000
     32       7.6782      0.00000
     33       8.1126      0.00000
     34       8.1126      0.00000
     35       8.9197      0.00000

 k-point    56 :       0.0000    0.5000    0.5000
  band No.  band energies     occupation 
      1     -35.8455      2.00000
      2     -35.8455      2.00000
      3     -17.0015      2.00000
      4     -17.0015      2.00000
      5     -16.8905      2.00000
      6     -16.8905      2.00000
      7     -16.7878      2.00000
      8     -16.7878      2.00000
      9      -8.0320      2.00000
     10      -8.0320      2.00000
     11      -1.4214      2.00000
     12      -1.4214      2.00000
     13      -0.3319      2.00000
     14      -0.3319      2.00000
     15      -0.3216      2.00000
     16      -0.3216      2.00000
     17       1.8565      2.00000
     18       1.8565      2.00000
     19       4.3208      2.00000
     20       4.3208      2.00000
     21       4.7376      2.00000
     22       4.7376      2.00000
     23       4.7979      2.00000
     24       4.7979      2.00000
     25       4.7994      2.00000
     26       4.7994      2.00000
     27       5.5291      0.00000
     28       5.5291      0.00000
     29       5.6706      0.00000
     30       5.6706      0.00000
     31       7.8844      0.00000
     32       7.8844      0.00000
     33       8.5455      0.00000
     34       8.5479      0.00000
     35       8.6851      0.00000

 k-point    57 :       0.1111    0.5000    0.5000
  band No.  band energies     occupation 
      1     -35.8444      2.00000
      2     -35.8444      2.00000
      3     -16.9998      2.00000
      4     -16.9998      2.00000
      5     -16.8877      2.00000
      6     -16.8877      2.00000
      7     -16.8037      2.00000
      8     -16.8037      2.00000
      9      -7.9478      2.00000
     10      -7.9478      2.00000
     11      -1.9135      2.00000
     12      -1.9135      2.00000
     13      -0.2073      2.00000
     14      -0.2073      2.00000
     15      -0.1859      2.00000
     16      -0.1859      2.00000
     17       2.1377      2.00000
     18       2.1377      2.00000
     19       4.2240      2.00000
     20       4.2240      2.00000
     21       4.6342      2.00000
     22       4.6342      2.00000
     23       4.7852      2.00000
     24       4.7852      2.00000
     25       4.8223      2.00000
     26       4.8223      2.00000
     27       5.6389      0.00000
     28       5.6389      0.00000
     29       5.7826      0.00000
     30       5.7826      0.00000
     31       7.9850      0.00000
     32       7.9850      0.00000
     33       7.9910      0.00000
     34       7.9910      0.00000
     35       8.5066      0.00000

 k-point    58 :       0.2222    0.5000    0.5000
  band No.  band energies     occupation 
      1     -35.8415      2.00000
      2     -35.8415      2.00000
      3     -16.9954      2.00000
      4     -16.9954      2.00000
      5     -16.8805      2.00000
      6     -16.8805      2.00000
      7     -16.8440      2.00000
      8     -16.8440      2.00000
      9      -7.7058      2.00000
     10      -7.7058      2.00000
     11      -2.8720      2.00000
     12      -2.8720      2.00000
     13       0.1299      2.00000
     14       0.1299      2.00000
     15       0.1433      2.00000
     16       0.1433      2.00000
     17       2.5164      2.00000
     18       2.5164      2.00000
     19       3.8620      2.00000
     20       3.8620      2.00000
     21       4.4326      2.00000
     22       4.4326      2.00000
     23       4.7491      2.00000
     24       4.7491      2.00000
     25       4.8798      2.00000
     26       4.8798      2.00000
     27       5.4884      0.00000
     28       5.4884      0.00000
     29       6.2486      0.00000
     30       6.2486      0.00000
     31       7.4293      0.00000
     32       7.4293      0.00000
     33       7.9270      0.00000
     34       7.9270      0.00000
     35       8.4578      0.00000

 k-point    59 :       0.3333    0.5000    0.5000
  band No.  band energies     occupation 
      1     -35.8382      2.00000
      2     -35.8382      2.00000
      3     -16.9904      2.00000
      4     -16.9904      2.00000
      5     -16.8892      2.00000
      6     -16.8892      2.00000
      7     -16.8722      2.00000
      8     -16.8722      2.00000
      9      -7.3509      2.00000
     10      -7.3509      2.00000
     11      -3.8161      2.00000
     12      -3.8161      2.00000
     13       0.6121      2.00000
     14       0.6121      2.00000
     15       0.6717      2.00000
     16       0.6717      2.00000
     17       2.5206      2.00000
     18       2.5206      2.00000
     19       3.1926      2.00000
     20       3.1926      2.00000
     21       4.2278      2.00000
     22       4.2278      2.00000
     23       4.7942      2.00000
     24       4.7942      2.00000
     25       4.7947      2.00000
     26       4.7947      2.00000
     27       5.3694      0.00000
     28       5.3694      0.00000
     29       6.0514      0.00000
     30       6.0514      0.00000
     31       7.6473      0.00000
     32       7.6473      0.00000
     33       8.0682      0.00000
     34       8.0682      0.00000
     35       8.8619      0.00000

 k-point    60 :       0.4444    0.5000    0.5000
  band No.  band energies     occupation 
      1     -35.8361      2.00000
      2     -35.8361      2.00000
      3     -16.9871      2.00000
      4     -16.9871      2.00000
      5     -16.9186      2.00000
      6     -16.9186      2.00000
      7     -16.8669      2.00000
      8     -16.8669      2.00000
      9      -7.0269      2.00000
     10      -7.0269      2.00000
     11      -4.4575      2.00000
     12      -4.4575      2.00000
     13       1.1134      2.00000
     14       1.1134      2.00000
     15       1.3618      2.00000
     16       1.3618      2.00000
     17       2.1864      2.00000
     18       2.1864      2.00000
     19       2.3642      2.00000
     20       2.3642      2.00000
     21       4.1166      2.00000
     22       4.1166      2.00000
     23       4.6639      2.00000
     24       4.6639      2.00000
     25       4.9284      2.00000
     26       4.9284      2.00000
     27       5.3737      0.00000
     28       5.3737      0.00000
     29       5.6792      0.00000
     30       5.6792      0.00000
     31       7.9162      0.00000
     32       7.9162      0.00000
     33       8.2906      0.00000
     34       8.2906      0.00000
     35       9.1444      0.00000


--------------------------------------------------------------------------------------------------------


 soft charge-density along one line, spin component           1
         0         1         2         3         4         5         6         7         8         9
 total charge-density along one line
 
 pseudopotential strength for first ion, spin component:           1
-18.215  -4.478   0.000   0.000  -0.000  -0.000  -0.000   0.000
 -4.478  -2.172   0.000   0.000  -0.000   0.000   0.000   0.000
  0.000   0.000 -19.336  -0.000   0.000   6.403   0.000  -0.000
  0.000   0.000  -0.000 -19.399  -0.000   0.000   6.463   0.000
 -0.000  -0.000   0.000  -0.000 -19.353  -0.000   0.000   6.419
 -0.000   0.000   6.403   0.000  -0.000   8.014  -0.000   0.000
 -0.000   0.000   0.000   6.463   0.000  -0.000   7.981  -0.000
  0.000   0.000  -0.000   0.000   6.419   0.000  -0.000   8.004
  0.000   0.000   0.000  -0.000   0.000   0.000   0.000  -0.000
 -0.000  -0.000   0.000   0.000  -0.000  -0.000  -0.000   0.000
 -0.029  -0.007  -0.000   0.000   0.000   0.000  -0.000   0.000
 -0.000  -0.000  -0.000  -0.000   0.000   0.000  -0.000  -0.000
 -0.008  -0.002  -0.000  -0.000  -0.000   0.000   0.000   0.000
  0.000   0.000  -0.000  -0.000   0.000  -0.000   0.000  -0.000
 -0.000  -0.000   0.000   0.000  -0.000  -0.000  -0.000   0.000
 -0.036  -0.007  -0.000   0.000   0.000   0.000  -0.000  -0.000
 -0.000  -0.000  -0.000  -0.000   0.000   0.000  -0.000  -0.000
 -0.010  -0.002  -0.000  -0.000  -0.000   0.000   0.000   0.000
 total augmentation occupancy for first ion, spin component:           1
  2.001   0.009   0.000   0.000   0.000   0.000   0.000   0.000  -0.000  -0.000   0.001   0.000   0.003  -0.000  -0.000   0.005
  0.009   0.712   0.000   0.000   0.000   0.000   0.000   0.000   0.000   0.000  -0.112  -0.000  -0.059  -0.000  -0.000   0.040
  0.000   0.000   2.003   0.000   0.000   0.006   0.000   0.000   0.000   0.000   0.000   0.000   0.000  -0.000   0.000   0.000
  0.000   0.000   0.000   2.004   0.000   0.000   0.013   0.000   0.000   0.000  -0.000   0.000   0.000   0.000   0.000   0.000
  0.000   0.000   0.000   0.000   2.003   0.000   0.000   0.009  -0.000   0.000   0.000   0.000   0.000   0.000   0.000   0.000
  0.000   0.000   0.006   0.000   0.000   0.035   0.000   0.000  -0.000   0.000   0.000   0.000   0.000   0.000   0.000  -0.000
  0.000   0.000   0.000   0.013   0.000   0.000   0.019   0.000   0.000   0.000   0.000   0.000   0.000   0.000   0.000   0.000
  0.000   0.000   0.000   0.000   0.009   0.000   0.000   0.030   0.000   0.000   0.000   0.000   0.000   0.000   0.000  -0.000
 -0.000   0.000  -0.000   0.000   0.000  -0.000   0.000   0.000   0.313   0.000  -0.000   0.000   0.000  -0.116  -0.000   0.000
 -0.000   0.000   0.000   0.000   0.000   0.000  -0.000   0.000   0.000   0.261   0.000   0.000  -0.000  -0.000  -0.128  -0.000
  0.001  -0.112   0.000  -0.000   0.000   0.000   0.000   0.000  -0.000   0.000   0.119   0.000  -0.004   0.000  -0.000  -0.046
  0.000  -0.000   0.000   0.000   0.000   0.000   0.000   0.000   0.000   0.000   0.000   0.078   0.000  -0.000  -0.000  -0.000
  0.003  -0.059   0.000   0.000   0.000   0.000   0.000   0.000   0.000  -0.000  -0.004   0.000   0.213  -0.000   0.000  -0.002
 -0.000  -0.000   0.000   0.000   0.000   0.000   0.000   0.000  -0.116  -0.000   0.000  -0.000  -0.000   0.045   0.000  -0.000
 -0.000  -0.000   0.000   0.000   0.000   0.000   0.000   0.000  -0.000  -0.128  -0.000  -0.000   0.000   0.000   0.065   0.000
  0.005   0.040   0.000   0.000   0.000  -0.000   0.000   0.000   0.000  -0.000  -0.046  -0.000  -0.002  -0.000   0.000   0.019
 -0.000   0.000  -0.000   0.000   0.000   0.000   0.000   0.000  -0.000  -0.000  -0.000  -0.034  -0.000   0.000   0.000   0.000
 -0.000   0.045   0.000   0.000   0.000  -0.000   0.000   0.000  -0.000   0.000  -0.001  -0.000  -0.094   0.000  -0.000   0.002


------------------------ aborting loop because EDIFF is reached ----------------------------------------


 


 total charge     
 
# of ion       s       p       d       tot
------------------------------------------
    1        2.050   5.844   0.287   8.181
    2        2.050   5.844   0.287   8.181
    3        0.464   0.434   6.583   7.482
    4        0.464   0.434   6.583   7.482
    5        0.758   1.227   0.000   1.986
    6        0.758   1.227   0.000   1.986
    7        1.003   1.477   0.000   2.481
    8        1.003   1.477   0.000   2.481
--------------------------------------------------
tot          8.550  17.967  13.740  40.257
 
    CHARGE:  cpu time    0.0411: real time    0.0411
    FORLOC:  cpu time    0.0008: real time    0.0008
    FORNL :  cpu time    0.1309: real time    0.1309
    STRESS:  cpu time    0.4895: real time    0.4897
    FORCOR:  cpu time    0.0098: real time    0.0098
    FORHAR:  cpu time    0.0027: real time    0.0027
    MIXING:  cpu time    0.0005: real time    0.0005
    OFIELD:  cpu time    0.0000: real time    0.0000

  FORCE on cell =-STRESS in cart. coord.  units (eV):
  Direction    XX          YY          ZZ          XY          YZ          ZX
  --------------------------------------------------------------------------------------
  Alpha Z   201.32713   201.32713   201.32713
  Ewald    -828.05470 -1183.64538  -853.63967     0.00000     0.00000    -0.00000
  Hartree   345.88572   234.25211   305.98186    -0.00000    -0.00000    -0.00000
  E(xc)    -219.63735  -220.91503  -220.46624     0.00000     0.00000    -0.00000
  Local    -123.16015   301.52423   -59.38246     0.00000    -0.00000    -0.00000
  n-local   -34.08957   -40.68598   -35.24898     2.17361     0.18214    -0.86576
  augment   105.66907   109.86151   100.57553    -0.00000     0.00000    -0.00000
  Kinetic   556.35045   597.59784   562.56979    -0.25602    -0.34835     0.76255
  Fock        0.00000     0.00000     0.00000     0.00000     0.00000     0.00000
  -------------------------------------------------------------------------------------
  Total       4.29060    -0.68357     1.71695    -0.00000    -0.00000     0.00000
  in kB      51.91664    -8.27120    20.77529    -0.00000    -0.00000     0.00000
  external pressure =       21.47 kB  Pullay stress =        0.00 kB


 VOLUME and BASIS-vectors are now :
 -----------------------------------------------------------------------------
  energy-cutoff  :      400.00
  volume of cell :      132.41
      direct lattice vectors                 reciprocal lattice vectors
     3.700065289  0.000000000  0.000000000     0.270265501 -0.000000000 -0.000000000
     0.000000000  4.683516914  0.000000000    -0.000000000  0.213514762 -0.000000000
     0.000000000  0.000000000  7.640835408    -0.000000000 -0.000000000  0.130875742

  length of vectors
     3.700065289  4.683516914  7.640835408     0.270265501  0.213514762  0.130875742


 FORCES acting on ions
    electron-ion (+dipol)            ewald-force                    non-local-force                 convergence-correction
 -----------------------------------------------------------------------------------------------
   -.206E-14 0.774E-14 0.180E-12   0.627E-14 0.757E-16 0.000E+00   -.212E-22 -.226E-24 0.000E+00   -.714E-14 0.161E-13 0.993E-14
   -.153E-14 0.823E-14 0.569E-12   0.646E-14 -.756E-16 0.284E-13   0.289E-22 0.220E-24 0.000E+00   -.758E-14 0.162E-13 0.128E-14
   0.239E-12 -.106E-11 0.553E-12   -.728E-14 0.195E-14 0.426E-13   -.314E-23 -.820E-25 0.000E+00   0.169E-13 0.248E-13 -.695E-14
   0.239E-12 -.803E-12 -.129E-11   -.707E-14 0.165E-14 0.142E-13   0.134E-23 0.524E-25 0.000E+00   0.165E-13 0.252E-13 0.633E-14
   0.903E-14 -.343E-12 0.187E-12   -.175E-14 -.142E-16 -.239E-14   -.636E-23 -.110E-24 -.265E-22   0.382E-14 0.478E-14 0.109E-13
   0.907E-14 -.581E-12 -.118E-12   -.174E-14 -.314E-16 0.248E-14   0.580E-23 -.889E-25 -.265E-22   0.390E-14 0.477E-14 -.124E-13
   -.548E-14 0.157E-13 -.152E-13   0.621E-14 -.251E-14 -.464E-13   0.293E-23 0.395E-24 0.000E+00   -.603E-14 0.566E-14 0.127E-13
   -.558E-14 0.165E-13 -.338E-13   0.626E-14 -.254E-14 -.389E-13   -.182E-22 0.632E-23 0.000E+00   -.612E-14 0.565E-14 -.134E-13
 -----------------------------------------------------------------------------------------------
   0.482E-12 -.274E-11 0.343E-13   0.736E-14 -.150E-14 0.241E-17   -.100E-22 0.648E-23 -.529E-22   0.143E-13 0.103E-12 0.837E-14
 
 
 POSITION                                       TOTAL-FORCE (eV/Angst)
 -----------------------------------------------------------------------------------
      0.00000      0.00000      1.91021         0.000000     -0.000000      0.000000
      0.00000      0.00000      5.73063         0.000000     -0.000000      0.000000
      1.85003      2.34176      5.73063        -0.000000     -0.000000      0.000000
      1.85003      2.34176      1.91021        -0.000000     -0.000000      0.000000
      1.85003      2.34176      0.00000         0.000000      0.000000      0.000000
      1.85003      2.34176      3.82042         0.000000     -0.000000     -0.000000
      0.00000      2.34176      0.00000         0.000000     -0.000000     -0.000000
      0.00000      2.34176      3.82042         0.000000     -0.000000      0.000000
 -----------------------------------------------------------------------------------
    total drift:                                0.000000     -0.000000      0.000000


--------------------------------------------------------------------------------------------------------



  FREE ENERGIE OF THE ION-ELECTRON SYSTEM (eV)
  ---------------------------------------------------
  free  energy   TOTEN  =       -42.16282946 eV

  energy  without entropy=      -42.16235389  energy(sigma->0) =      -42.16259167
 
 d Force = 0.0000000E+00[ 0.000E+00, 0.000E+00]  d Energy = 0.5393911E+00-0.539E+00
 d Force = 0.0000000E+00[ 0.000E+00, 0.000E+00]  d Ewald  =-0.6543356E+02 0.654E+02


--------------------------------------------------------------------------------------------------------


    POTLOK:  cpu time    0.0112: real time    0.0112


--------------------------------------------------------------------------------------------------------


 Quasi-Newton relaxation of ions (Broydens 2nd method)
  g(Force)  = 0.546E-60   g(Stress)= 0.263E-01

 retain information from N=  1 steps
 eigenvalues of (default step * inverse Hessian matrix)
  average eigenvalue of G=   2.9472
 eigenvalue spectrum of G is  2.9472


--------------------------------------------------------------------------------------------------------


     LOOP+:  cpu time   15.4297: real time   15.4379
    4ORBIT:  cpu time    0.0000: real time    0.0000
 


 total charge     
 
# of ion       s       p       d       tot
------------------------------------------
    1        2.050   5.844   0.287   8.181
    2        2.050   5.844   0.287   8.181
    3        0.464   0.434   6.583   7.482
    4        0.464   0.434   6.583   7.482
    5        0.758   1.227   0.000   1.986
    6        0.758   1.227   0.000   1.986
    7        1.003   1.477   0.000   2.481
    8        1.003   1.477   0.000   2.481
--------------------------------------------------
tot          8.550  17.967  13.740  40.257
 

 total amount of memory used by VASP MPI-rank0    44677. kBytes
=======================================================================

   base      :      30000. kBytes
   nonl-proj :      10753. kBytes
   fftplans  :        534. kBytes
   grid      :       1075. kBytes
   one-center:         31. kBytes
   wavefun   :       2284. kBytes
 
  
  
 General timing and accounting informations for this job:
 ========================================================
  
                  Total CPU time used (sec):       51.930
                            User time (sec):       49.010
                          System time (sec):        2.919
                         Elapsed time (sec):       52.249
  
                   Maximum memory used (kb):      174456.
                   Average memory used (kb):           0.
  
                          Minor page faults:        14906
                          Major page faults:         4907
                 Voluntary context switches:          104
