 vasp.5.4.4.18Apr17-6-g9f103f2a35 (build Apr 24 2023 09:55:28) complex          
  
 executed on             LinuxIFC date 2024.04.04  10:38:54
 running on   35 total cores
 distrk:  each k-point on   35 cores,    1 groups
 distr:  one band on NCORES_PER_BAND=   7 cores,    5 groups


--------------------------------------------------------------------------------------------------------


 INCAR:
 POTCAR:    PAW_PBE Ca_sv 06Sep2000               
 POTCAR:    PAW_PBE Fe 06Sep2000                  
 POTCAR:    PAW_PBE B 06Sep2000                   
 POTCAR:    PAW_PBE Ca_sv 06Sep2000               
   VRHFIN =Ca: 3s3p4s                                                           
   LEXCH  = PE                                                                  
   EATOM  =  1006.0909 eV,   73.9456 Ry                                         
                                                                                
   TITEL  = PAW_PBE Ca_sv 06Sep2000                                             
   LULTRA =        F    use ultrasoft PP ?                                      
   IUNSCR =        1    unscreen: 0-lin 1-nonlin 2-no                           
   RPACOR =    2.000    partial core radius                                     
   POMASS =   40.078; ZVAL   =   10.000    mass and valenz                      
   RCORE  =    2.300    outmost cutoff radius                                   
   RWIGS  =    2.500; RWIGS  =    1.323    wigner-seitz radius (au A)           
   ENMAX  =  266.622; ENMIN  =  199.967 eV                                      
   RCLOC  =    1.808    cutoff for local pot                                    
   LCOR   =        T    correct aug charges                                     
   LPAW   =        T    paw PP                                                  
   EAUG   =  420.852                                                            
   RMAX   =    2.359    core radius for proj-oper                               
   RAUG   =    1.300    factor for augmentation sphere                          
   RDEP   =    2.392    radius for radial grids                                 
   RDEPT  =    1.987    core radius for aug-charge                              
                                                                                
   Atomic configuration                                                         
    7 entries                                                                   
     n  l   j            E        occ.                                          
     1  0  0.50     -3949.1705   2.0000                                         
     2  0  0.50      -414.3434   2.0000                                         
     2  1  1.50      -334.7047   6.0000                                         
     3  0  0.50       -47.0896   2.0000                                         
     4  0  0.50        -3.7663   2.0000                                         
     3  1  1.50       -28.0061   6.0000                                         
     3  2  1.50        -4.0817   0.0000                                         
   Description                                                                  
     l       E           TYP  RCUT    TYP  RCUT                                 
     0    -47.0896403     23  2.300                                             
     0     -3.7663320     23  2.300                                             
     1    -28.0060855     23  2.300                                             
     1      6.8029130     23  2.300                                             
     2     -4.0817478     23  2.300                                             
     2      0.4464412     23  2.300                                             
  local pseudopotential read in
  partial core-charges read in
  partial kinetic energy density read in
  atomic valenz-charges read in
  non local Contribution for L=           0  read in
    real space projection operators read in
  non local Contribution for L=           0  read in
    real space projection operators read in
  non local Contribution for L=           1  read in
    real space projection operators read in
  non local Contribution for L=           1  read in
    real space projection operators read in
  non local Contribution for L=           2  read in
    real space projection operators read in
  non local Contribution for L=           2  read in
    real space projection operators read in
    PAW grid and wavefunctions read in
 
   number of l-projection  operators is LMAX  =           6
   number of lm-projection operators is LMMAX =          18
 
 POTCAR:    PAW_PBE Fe 06Sep2000                  
   VRHFIN =Fe:  d7 s1                                                           
   LEXCH  = PE                                                                  
   EATOM  =   594.3153 eV,   43.6809 Ry                                         
                                                                                
   TITEL  = PAW_PBE Fe 06Sep2000                                                
   LULTRA =        F    use ultrasoft PP ?                                      
   IUNSCR =        1    unscreen: 0-lin 1-nonlin 2-no                           
   RPACOR =    2.000    partial core radius                                     
   POMASS =   55.847; ZVAL   =    8.000    mass and valenz                      
   RCORE  =    2.300    outmost cutoff radius                                   
   RWIGS  =    2.460; RWIGS  =    1.302    wigner-seitz radius (au A)           
   ENMAX  =  267.882; ENMIN  =  200.911 eV                                      
   RCLOC  =    1.701    cutoff for local pot                                    
   LCOR   =        T    correct aug charges                                     
   LPAW   =        T    paw PP                                                  
   EAUG   =  511.368                                                            
   DEXC   =    0.000                                                            
   RMAX   =    2.356    core radius for proj-oper                               
   RAUG   =    1.300    factor for augmentation sphere                          
   RDEP   =    2.442    radius for radial grids                                 
   RDEPT  =    1.890    core radius for aug-charge                              
                                                                                
   Atomic configuration                                                         
    9 entries                                                                   
     n  l   j            E        occ.                                          
     1  0  0.50     -6993.8440   2.0000                                         
     2  0  0.50      -814.6047   2.0000                                         
     2  1  1.50      -693.3689   6.0000                                         
     3  0  0.50       -89.4732   2.0000                                         
     3  1  1.50       -55.6373   6.0000                                         
     3  2  2.50        -3.8151   7.0000                                         
     4  0  0.50        -4.2551   1.0000                                         
     4  1  1.50        -3.4015   0.0000                                         
     4  3  2.50        -1.3606   0.0000                                         
   Description                                                                  
     l       E           TYP  RCUT    TYP  RCUT                                 
     2     -3.8151135     23  2.300                                             
     2     -5.1756961     23  2.300                                             
     0     -4.2550963     23  2.300                                             
     0      7.2035603     23  2.300                                             
     1     -2.7211652     23  2.300                                             
     1     18.4316424     23  2.300                                             
  local pseudopotential read in
  partial core-charges read in
  partial kinetic energy density read in
  atomic valenz-charges read in
  non local Contribution for L=           2  read in
    real space projection operators read in
  non local Contribution for L=           2  read in
    real space projection operators read in
  non local Contribution for L=           0  read in
    real space projection operators read in
  non local Contribution for L=           0  read in
    real space projection operators read in
  non local Contribution for L=           1  read in
    real space projection operators read in
  non local Contribution for L=           1  read in
    real space projection operators read in
    PAW grid and wavefunctions read in
 
   number of l-projection  operators is LMAX  =           6
   number of lm-projection operators is LMMAX =          18
 
 POTCAR:    PAW_PBE B 06Sep2000                   
   VRHFIN =B: s2p1                                                              
   LEXCH  = PE                                                                  
   EATOM  =    71.1703 eV,    5.2309 Ry                                         
                                                                                
   TITEL  = PAW_PBE B 06Sep2000                                                 
   LULTRA =        F    use ultrasoft PP ?                                      
   IUNSCR =        1    unscreen: 0-lin 1-nonlin 2-no                           
   RPACOR =    1.200    partial core radius                                     
   POMASS =   10.811; ZVAL   =    3.000    mass and valenz                      
   RCORE  =    1.700    outmost cutoff radius                                   
   RWIGS  =    1.710; RWIGS  =    0.905    wigner-seitz radius (au A)           
   ENMAX  =  318.614; ENMIN  =  238.960 eV                                      
   ICORE  =        2    local potential                                         
   LCOR   =        T    correct aug charges                                     
   LPAW   =        T    paw PP                                                  
   EAUG   =  535.514                                                            
   DEXC   =    0.000                                                            
   RMAX   =    1.732    core radius for proj-oper                               
   RAUG   =    1.300    factor for augmentation sphere                          
   RDEP   =    1.757    radius for radial grids                                 
   RDEPT  =    1.436    core radius for aug-charge                              
                                                                                
   Atomic configuration                                                         
    4 entries                                                                   
     n  l   j            E        occ.                                          
     1  0  0.50      -180.5896   2.0000                                         
     2  0  0.50        -9.4431   2.0000                                         
     2  1  0.50        -3.6068   1.0000                                         
     3  2  1.50        -4.0817   0.0000                                         
   Description                                                                  
     l       E           TYP  RCUT    TYP  RCUT                                 
     0     -9.4430752     23  1.500                                             
     0      0.8675899     23  1.500                                             
     1     -3.6067955     23  1.700                                             
     1      6.1086146     23  1.700                                             
     2     -4.0817478      7  1.700                                             
  local pseudopotential read in
  partial core-charges read in
  partial kinetic energy density read in
  atomic valenz-charges read in
  non local Contribution for L=           0  read in
    real space projection operators read in
  non local Contribution for L=           0  read in
    real space projection operators read in
  non local Contribution for L=           1  read in
    real space projection operators read in
  non local Contribution for L=           1  read in
    real space projection operators read in
    PAW grid and wavefunctions read in
 
   number of l-projection  operators is LMAX  =           4
   number of lm-projection operators is LMMAX =           8
 
  PAW_PBE Ca_sv 06Sep2000               :
 energy of atom  1       EATOM=-1006.0909
 kinetic energy error for atom=    0.0058 (will be added to EATOM!!)
  PAW_PBE Fe 06Sep2000                  :
 energy of atom  2       EATOM= -594.3153
 kinetic energy error for atom=    0.0088 (will be added to EATOM!!)
  PAW_PBE B 06Sep2000                   :
 energy of atom  3       EATOM=  -71.1703
 kinetic energy error for atom=    0.0020 (will be added to EATOM!!)
 
 
 POSCAR: Ca4 Fe4 B4                              
  positions in direct lattice
  No initial velocities read in
 exchange correlation table for  LEXCH =        8
   RHO(1)=    0.500       N(1)  =     2000
   RHO(2)=  100.500       N(2)  =     4000
 


--------------------------------------------------------------------------------------------------------


 ion  position               nearest neighbor table
   1  0.997  0.001  0.750-   9 2.45  12 2.48   9 2.55  12 2.56   7 3.10   6 3.10   8 3.10   5 3.10
                             7 3.10   6 3.10   5 3.12   8 3.12
   2  0.003  0.999  0.250-  10 2.45  11 2.48  10 2.55  11 2.56   8 3.10   5 3.10   6 3.10   7 3.10
                             5 3.10   8 3.10   7 3.12   6 3.12
   3  0.997  0.499  0.250-  11 2.45  10 2.48  11 2.55  10 2.56   7 3.10   6 3.10   8 3.10   5 3.10
                             7 3.10   6 3.10   5 3.12   8 3.12
   4  0.003  0.501  0.750-  12 2.45   9 2.48  12 2.55   9 2.56   8 3.10   5 3.10   6 3.10   7 3.10
                             5 3.10   8 3.10   7 3.12   6 3.12
   5  0.504  0.750  0.500-   9 1.82  11 1.82   2 3.10   4 3.10   3 3.10   1 3.10   2 3.10   4 3.10
                             3 3.12   1 3.12
   6  0.496  0.250  0.500-  10 1.82  12 1.82   1 3.10   3 3.10   2 3.10   4 3.10   1 3.10   3 3.10
                             2 3.12   4 3.12
   7  0.496  0.250  0.000-  10 1.82  12 1.82   1 3.10   3 3.10   2 3.10   4 3.10   1 3.10   3 3.10
                             2 3.12   4 3.12
   8  0.504  0.750  0.000-   9 1.82  11 1.82   2 3.10   4 3.10   3 3.10   1 3.10   2 3.10   4 3.10
                             3 3.12   1 3.12
   9  0.519  0.753  0.750-   5 1.82   8 1.82   1 2.45   4 2.48   1 2.55   4 2.56
  10  0.481  0.247  0.250-   6 1.82   7 1.82   2 2.45   3 2.48   2 2.55   3 2.56
  11  0.519  0.747  0.250-   5 1.82   8 1.82   3 2.45   2 2.48   3 2.55   2 2.56
  12  0.481  0.253  0.750-   6 1.82   7 1.82   4 2.45   1 2.48   4 2.55   1 2.56
 
  LATTYP: Found a simple orthorhombic cell.
 ALAT       =     3.4160100000
 B/A-ratio  =     2.1322595660
 C/A-ratio  =     2.1564895887
  
  Lattice vectors:
  
 A1 = (  -3.4160100000,   0.0000000000,   0.0000000000)
 A2 = (   0.0000000000,   0.0000000000,  -7.2838200000)
 A3 = (   0.0000000000,  -7.3665900000,   0.0000000000)


Analysis of symmetry for initial positions (statically):
=====================================================================
 Subroutine PRICEL returns:
 Original cell was already a primitive cell.
 

 Routine SETGRP: Setting up the symmetry group for a 
 simple orthorhombic supercell.


 Subroutine GETGRP returns: Found  8 space group operations
 (whereof  2 operations were pure point group operations)
 out of a pool of  8 trial point group operations.


The static configuration has the point symmetry S_2 .
 The point group associated with its full space group is D_2h.


Analysis of symmetry for dynamics (positions and initial velocities):
=====================================================================
 Subroutine PRICEL returns:
 Original cell was already a primitive cell.
 

 Routine SETGRP: Setting up the symmetry group for a 
 simple orthorhombic supercell.


 Subroutine GETGRP returns: Found  8 space group operations
 (whereof  2 operations were pure point group operations)
 out of a pool of  8 trial point group operations.


The dynamic configuration has the point symmetry S_2 .
 The point group associated with its full space group is D_2h.


 Subroutine INISYM returns: Found  8 space group operations
 (whereof  2 operations are pure point group operations),
 and found     1 'primitive' translations

 
 
 KPOINTS: Automatic mesh                          

Automatic generation of k-mesh.
 generate k-points for:    9    4    4
Space group operators:
 irot       det(A)        alpha          n_x          n_y          n_z        tau_x        tau_y        tau_z
    1     1.000000     0.000000     1.000000     0.000000     0.000000     0.000000     0.000000     0.000000
    2    -1.000000     0.000000     1.000000     0.000000     0.000000     0.000000     0.000000     0.000000
    3     1.000000   180.000000     0.000000     1.000000     0.000000     0.000000    -0.500000    -0.500000
    4    -1.000000   180.000000     0.000000     1.000000     0.000000     0.000000    -0.500000    -0.500000
    5     1.000000   180.000000     0.000000     0.000000     1.000000     0.000000     0.000000    -0.500000
    6    -1.000000   180.000000     0.000000     0.000000     1.000000     0.000000     0.000000    -0.500000
    7     1.000000   180.000000     1.000000     0.000000     0.000000     0.000000    -0.500000     0.000000
    8    -1.000000   180.000000     1.000000     0.000000     0.000000     0.000000    -0.500000     0.000000
 
 Subroutine IBZKPT returns following result:
 ===========================================
 
 Found     45 irreducible k-points:
 
 Following reciprocal coordinates:
            Coordinates               Weight
  0.000000  0.000000  0.000000      1.000000
  0.111111  0.000000  0.000000      2.000000
  0.222222  0.000000  0.000000      2.000000
  0.333333  0.000000  0.000000      2.000000
  0.444444  0.000000  0.000000      2.000000
  0.000000  0.250000  0.000000      2.000000
  0.111111  0.250000  0.000000      4.000000
  0.222222  0.250000  0.000000      4.000000
  0.333333  0.250000  0.000000      4.000000
  0.444444  0.250000  0.000000      4.000000
  0.000000  0.500000  0.000000      1.000000
  0.111111  0.500000  0.000000      2.000000
  0.222222  0.500000  0.000000      2.000000
  0.333333  0.500000  0.000000      2.000000
  0.444444  0.500000  0.000000      2.000000
  0.000000  0.000000  0.250000      2.000000
  0.111111  0.000000  0.250000      4.000000
  0.222222  0.000000  0.250000      4.000000
  0.333333  0.000000  0.250000      4.000000
  0.444444  0.000000  0.250000      4.000000
  0.000000  0.250000  0.250000      4.000000
  0.111111  0.250000  0.250000      8.000000
  0.222222  0.250000  0.250000      8.000000
  0.333333  0.250000  0.250000      8.000000
  0.444444  0.250000  0.250000      8.000000
  0.000000  0.500000  0.250000      2.000000
  0.111111  0.500000  0.250000      4.000000
  0.222222  0.500000  0.250000      4.000000
  0.333333  0.500000  0.250000      4.000000
  0.444444  0.500000  0.250000      4.000000
  0.000000  0.000000  0.500000      1.000000
  0.111111  0.000000  0.500000      2.000000
  0.222222  0.000000  0.500000      2.000000
  0.333333  0.000000  0.500000      2.000000
  0.444444  0.000000  0.500000      2.000000
  0.000000  0.250000  0.500000      2.000000
  0.111111  0.250000  0.500000      4.000000
  0.222222  0.250000  0.500000      4.000000
  0.333333  0.250000  0.500000      4.000000
  0.444444  0.250000  0.500000      4.000000
  0.000000  0.500000  0.500000      1.000000
  0.111111  0.500000  0.500000      2.000000
  0.222222  0.500000  0.500000      2.000000
  0.333333  0.500000  0.500000      2.000000
  0.444444  0.500000  0.500000      2.000000
 
 Following cartesian coordinates:
            Coordinates               Weight
  0.000000  0.000000  0.000000      1.000000
  0.032527  0.000000  0.000000      2.000000
  0.065053  0.000000  0.000000      2.000000
  0.097580  0.000000  0.000000      2.000000
  0.130106  0.000000  0.000000      2.000000
  0.000000  0.033937  0.000000      2.000000
  0.032527  0.033937  0.000000      4.000000
  0.065053  0.033937  0.000000      4.000000
  0.097580  0.033937  0.000000      4.000000
  0.130106  0.033937  0.000000      4.000000
  0.000000  0.067874  0.000000      1.000000
  0.032527  0.067874  0.000000      2.000000
  0.065053  0.067874  0.000000      2.000000
  0.097580  0.067874  0.000000      2.000000
  0.130106  0.067874  0.000000      2.000000
  0.000000  0.000000  0.034323      2.000000
  0.032527  0.000000  0.034323      4.000000
  0.065053  0.000000  0.034323      4.000000
  0.097580  0.000000  0.034323      4.000000
  0.130106  0.000000  0.034323      4.000000
  0.000000  0.033937  0.034323      4.000000
  0.032527  0.033937  0.034323      8.000000
  0.065053  0.033937  0.034323      8.000000
  0.097580  0.033937  0.034323      8.000000
  0.130106  0.033937  0.034323      8.000000
  0.000000  0.067874  0.034323      2.000000
  0.032527  0.067874  0.034323      4.000000
  0.065053  0.067874  0.034323      4.000000
  0.097580  0.067874  0.034323      4.000000
  0.130106  0.067874  0.034323      4.000000
  0.000000  0.000000  0.068645      1.000000
  0.032527  0.000000  0.068645      2.000000
  0.065053  0.000000  0.068645      2.000000
  0.097580  0.000000  0.068645      2.000000
  0.130106  0.000000  0.068645      2.000000
  0.000000  0.033937  0.068645      2.000000
  0.032527  0.033937  0.068645      4.000000
  0.065053  0.033937  0.068645      4.000000
  0.097580  0.033937  0.068645      4.000000
  0.130106  0.033937  0.068645      4.000000
  0.000000  0.067874  0.068645      1.000000
  0.032527  0.067874  0.068645      2.000000
  0.065053  0.067874  0.068645      2.000000
  0.097580  0.067874  0.068645      2.000000
  0.130106  0.067874  0.068645      2.000000
 


--------------------------------------------------------------------------------------------------------




 Dimension of arrays:
   k-points           NKPTS =     45   k-points in BZ     NKDIM =     45   number of bands    NBANDS=     50
   number of dos      NEDOS =    301   number of ions     NIONS =     12
   non local maximal  LDIM  =      6   non local SUM 2l+1 LMDIM =     18
   total plane-waves  NPLWV =  55296
   max r-space proj   IRMAX =      1   max aug-charges    IRDMAX=  14592
   dimension x,y,z NGX =    24 NGY =   48 NGZ =   48
   dimension x,y,z NGXF=    48 NGYF=   96 NGZF=   96
   support grid    NGXF=    48 NGYF=   96 NGZF=   96
   ions per type =               4   4   4
   NGX,Y,Z   is equivalent  to a cutoff of  11.68, 10.83, 10.96 a.u.
   NGXF,Y,Z  is equivalent  to a cutoff of  23.36, 21.66, 21.91 a.u.

 SYSTEM =  DFT routine                             
 POSCAR =  Ca4 Fe4 B4                              

 Startparameter for this run:
   NWRITE =      2    write-flag & timer
   PREC   = acc       normal or accurate (medium, high low for compatibility)
   ISTART =      0    job   : 0-new  1-cont  2-samecut
   ICHARG =      2    charge: 1-file 2-atom 10-const
   ISPIN  =      1    spin polarized calculation?
   LNONCOLLINEAR =      F non collinear calculations
   LSORBIT =      F    spin-orbit coupling
   INIWAV =      1    electr: 0-lowe 1-rand  2-diag
   LASPH  =      F    aspherical Exc in radial PAW
   METAGGA=      F    non-selfconsistent MetaGGA calc.

 Electronic Relaxation 1
   ENCUT  =  400.0 eV  29.40 Ry    5.42 a.u.   5.57 12.01 11.88*2*pi/ulx,y,z
   ENINI  =  400.0     initial cutoff
   ENAUG  =  535.5 eV  augmentation charge cutoff
   NELM   =    100;   NELMIN=  2; NELMDL= -5     # of ELM steps 
   EDIFF  = 0.1E-04   stopping-criterion for ELM
   LREAL  =      F    real-space projection
   NLSPLINE    = F    spline interpolate recip. space projectors
   LCOMPAT=      F    compatible to vasp.4.4
   GGA_COMPAT  = T    GGA compatible to vasp.4.4-vasp.4.6
   LMAXPAW     = -100 max onsite density
   LMAXMIX     =    2 max onsite mixed and CHGCAR
   VOSKOWN=      0    Vosko Wilk Nusair interpolation
   ROPT   =    0.00000   0.00000   0.00000
 Ionic relaxation
   EDIFFG = 0.1E-03   stopping-criterion for IOM
   NSW    =     10    number of steps for IOM
   NBLOCK =      1;   KBLOCK =     10    inner block; outer block 
   IBRION =      1    ionic relax: 0-MD 1-quasi-New 2-CG
   NFREE  =      0    steps in history (QN), initial steepest desc. (CG)
   ISIF   =      3    stress and relaxation
   IWAVPR =     11    prediction:  0-non 1-charg 2-wave 3-comb
   ISYM   =      2    0-nonsym 1-usesym 2-fastsym
   LCORR  =      T    Harris-Foulkes like correction to forces

   POTIM  = 0.1000    time-step for ionic-motion
   TEIN   =    0.0    initial temperature
   TEBEG  =    0.0;   TEEND  =   0.0 temperature during run
   SMASS  =  -3.00    Nose mass-parameter (am)
   estimated Nose-frequenzy (Omega)   =  0.10E-29 period in steps =****** mass=  -0.267E-27a.u.
   SCALEE = 1.0000    scale energy and forces
   NPACO  =    256;   APACO  = 16.0  distance and # of slots for P.C.
   PSTRESS=    0.0 pullay stress

  Mass of Ions in am
   POMASS =  40.08 55.85 10.81
  Ionic Valenz
   ZVAL   =  10.00  8.00  3.00
  Atomic Wigner-Seitz radii
   RWIGS  =  -1.00 -1.00 -1.00
  virtual crystal weights 
   VCA    =   1.00  1.00  1.00
   NELECT =      84.0000    total number of electrons
   NUPDOWN=      -1.0000    fix difference up-down

 DOS related values:
   EMIN   =  10.00;   EMAX   =-10.00  energy-range for DOS
   EFERMI =   0.00
   ISMEAR =     0;   SIGMA  =   0.01  broadening in eV -4-tet -1-fermi 0-gaus

 Electronic relaxation 2 (details)
   IALGO  =     38    algorithm
   LDIAG  =      T    sub-space diagonalisation (order eigenvalues)
   LSUBROT=      F    optimize rotation matrix (better conditioning)
   TURBO    =      0    0=normal 1=particle mesh
   IRESTART =      0    0=no restart 2=restart with 2 vectors
   NREBOOT  =      0    no. of reboots
   NMIN     =      0    reboot dimension
   EREF     =   0.00    reference energy to select bands
   IMIX   =      4    mixing-type and parameters
     AMIX     =   0.40;   BMIX     =  1.00
     AMIX_MAG =   1.60;   BMIX_MAG =  1.00
     AMIN     =   0.10
     WC   =   100.;   INIMIX=   1;  MIXPRE=   1;  MAXMIX= -45

 Intra band minimization:
   WEIMIN = 0.0010     energy-eigenvalue tresh-hold
   EBREAK =  0.50E-07  absolut break condition
   DEPER  =   0.30     relativ break condition  

   TIME   =   0.40     timestep for ELM

  volume/ion in A,a.u.               =      15.27       103.08
  Fermi-wavevector in a.u.,A,eV,Ry     =   1.262175  2.385165 21.675255  1.593086
  Thomas-Fermi vector in A             =   2.395597
 
 Write flags
   LWAVE        =      F    write WAVECAR
   LDOWNSAMPLE  =      F    k-point downsampling of WAVECAR
   LCHARG       =      F    write CHGCAR
   LVTOT        =      F    write LOCPOT, total local potential
   LVHAR        =      F    write LOCPOT, Hartree potential only
   LELF         =      F    write electronic localiz. function (ELF)
   LORBIT       =     10    0 simple, 1 ext, 2 COOP (PROOUT), +10 PAW based schemes


 Dipole corrections
   LMONO  =      F    monopole corrections only (constant potential shift)
   LDIPOL =      F    correct potential (dipole corrections)
   IDIPOL =      0    1-x, 2-y, 3-z, 4-all directions 
   EPSILON=  1.0000000 bulk dielectric constant

 Exchange correlation treatment:
   GGA     =    --    GGA type
   LEXCH   =     8    internal setting for exchange type
   VOSKOWN=      0    Vosko Wilk Nusair interpolation
   LHFCALC =     F    Hartree Fock is set to
   LHFONE  =     F    Hartree Fock one center treatment
   AEXX    =    0.0000 exact exchange contribution

 Linear response parameters
   LEPSILON=     F    determine dielectric tensor
   LRPA    =     F    only Hartree local field effects (RPA)
   LNABLA  =     F    use nabla operator in PAW spheres
   LVEL    =     F    velocity operator in full k-point grid
   LINTERFAST=   F  fast interpolation
   KINTER  =     0    interpolate to denser k-point grid
   CSHIFT  =0.1000    complex shift for real part using Kramers Kronig
   OMEGAMAX=  -1.0    maximum frequency
   DEG_THRESHOLD= 0.2000000E-02 threshold for treating states as degnerate
   RTIME   =   -0.100 relaxation time in fs
  (WPLASMAI=    0.000 imaginary part of plasma frequency in eV, 0.658/RTIME)
   DFIELD  = 0.0000000 0.0000000 0.0000000 field for delta impulse in time
 
 Orbital magnetization related:
   ORBITALMAG=     F  switch on orbital magnetization
   LCHIMAG   =     F  perturbation theory with respect to B field
   DQ        =  0.001000  dq finite difference perturbation B field
   LLRAUG    =     F  two centre corrections for induced B field



--------------------------------------------------------------------------------------------------------


 quasi-Newton-method for relaxation of ions
 charge density and potential will be updated during run
 non-spin polarized calculation
 Variant of blocked Davidson
 Davidson routine will perform the subspace rotation
 perform sub-space diagonalisation
    after iterative eigenvector-optimisation
 modified Broyden-mixing scheme, WC =      100.0
 initial mixing is a Kerker type mixing with AMIX =  0.4000 and BMIX =      1.0000
 Hartree-type preconditioning will be used
 using additional bands            8
 reciprocal scheme for non local part
 use partial core corrections
 calculate Harris-corrections to forces 
   (improved forces if not selfconsistent)
 use gradient corrections 
 use of overlap-Matrix (Vanderbilt PP)
 Gauss-broadening in eV      SIGMA  =   0.01


--------------------------------------------------------------------------------------------------------


  energy-cutoff  :      400.00
  volume of cell :      183.29
      direct lattice vectors                 reciprocal lattice vectors
     3.416010000  0.000000000  0.000000000     0.292739190  0.000000000  0.000000000
     0.000000000  7.366590000  0.000000000     0.000000000  0.135748019  0.000000000
     0.000000000  0.000000000  7.283820000     0.000000000  0.000000000  0.137290598

  length of vectors
     3.416010000  7.366590000  7.283820000     0.292739190  0.135748019  0.137290598


 
 k-points in units of 2pi/SCALE and weight: Automatic mesh                          
   0.00000000  0.00000000  0.00000000       0.007
   0.03252658  0.00000000  0.00000000       0.014
   0.06505315  0.00000000  0.00000000       0.014
   0.09757973  0.00000000  0.00000000       0.014
   0.13010631  0.00000000  0.00000000       0.014
   0.00000000  0.03393700  0.00000000       0.014
   0.03252658  0.03393700  0.00000000       0.028
   0.06505315  0.03393700  0.00000000       0.028
   0.09757973  0.03393700  0.00000000       0.028
   0.13010631  0.03393700  0.00000000       0.028
   0.00000000  0.06787401  0.00000000       0.007
   0.03252658  0.06787401  0.00000000       0.014
   0.06505315  0.06787401  0.00000000       0.014
   0.09757973  0.06787401  0.00000000       0.014
   0.13010631  0.06787401  0.00000000       0.014
   0.00000000  0.00000000  0.03432265       0.014
   0.03252658  0.00000000  0.03432265       0.028
   0.06505315  0.00000000  0.03432265       0.028
   0.09757973  0.00000000  0.03432265       0.028
   0.13010631  0.00000000  0.03432265       0.028
   0.00000000  0.03393700  0.03432265       0.028
   0.03252658  0.03393700  0.03432265       0.056
   0.06505315  0.03393700  0.03432265       0.056
   0.09757973  0.03393700  0.03432265       0.056
   0.13010631  0.03393700  0.03432265       0.056
   0.00000000  0.06787401  0.03432265       0.014
   0.03252658  0.06787401  0.03432265       0.028
   0.06505315  0.06787401  0.03432265       0.028
   0.09757973  0.06787401  0.03432265       0.028
   0.13010631  0.06787401  0.03432265       0.028
   0.00000000  0.00000000  0.06864530       0.007
   0.03252658  0.00000000  0.06864530       0.014
   0.06505315  0.00000000  0.06864530       0.014
   0.09757973  0.00000000  0.06864530       0.014
   0.13010631  0.00000000  0.06864530       0.014
   0.00000000  0.03393700  0.06864530       0.014
   0.03252658  0.03393700  0.06864530       0.028
   0.06505315  0.03393700  0.06864530       0.028
   0.09757973  0.03393700  0.06864530       0.028
   0.13010631  0.03393700  0.06864530       0.028
   0.00000000  0.06787401  0.06864530       0.007
   0.03252658  0.06787401  0.06864530       0.014
   0.06505315  0.06787401  0.06864530       0.014
   0.09757973  0.06787401  0.06864530       0.014
   0.13010631  0.06787401  0.06864530       0.014
 
 k-points in reciprocal lattice and weights: Automatic mesh                          
   0.00000000  0.00000000  0.00000000       0.007
   0.11111111  0.00000000  0.00000000       0.014
   0.22222222  0.00000000  0.00000000       0.014
   0.33333333  0.00000000  0.00000000       0.014
   0.44444444  0.00000000  0.00000000       0.014
   0.00000000  0.25000000  0.00000000       0.014
   0.11111111  0.25000000  0.00000000       0.028
   0.22222222  0.25000000  0.00000000       0.028
   0.33333333  0.25000000  0.00000000       0.028
   0.44444444  0.25000000  0.00000000       0.028
   0.00000000  0.50000000  0.00000000       0.007
   0.11111111  0.50000000  0.00000000       0.014
   0.22222222  0.50000000  0.00000000       0.014
   0.33333333  0.50000000  0.00000000       0.014
   0.44444444  0.50000000  0.00000000       0.014
   0.00000000  0.00000000  0.25000000       0.014
   0.11111111  0.00000000  0.25000000       0.028
   0.22222222  0.00000000  0.25000000       0.028
   0.33333333  0.00000000  0.25000000       0.028
   0.44444444  0.00000000  0.25000000       0.028
   0.00000000  0.25000000  0.25000000       0.028
   0.11111111  0.25000000  0.25000000       0.056
   0.22222222  0.25000000  0.25000000       0.056
   0.33333333  0.25000000  0.25000000       0.056
   0.44444444  0.25000000  0.25000000       0.056
   0.00000000  0.50000000  0.25000000       0.014
   0.11111111  0.50000000  0.25000000       0.028
   0.22222222  0.50000000  0.25000000       0.028
   0.33333333  0.50000000  0.25000000       0.028
   0.44444444  0.50000000  0.25000000       0.028
   0.00000000  0.00000000  0.50000000       0.007
   0.11111111  0.00000000  0.50000000       0.014
   0.22222222  0.00000000  0.50000000       0.014
   0.33333333  0.00000000  0.50000000       0.014
   0.44444444  0.00000000  0.50000000       0.014
   0.00000000  0.25000000  0.50000000       0.014
   0.11111111  0.25000000  0.50000000       0.028
   0.22222222  0.25000000  0.50000000       0.028
   0.33333333  0.25000000  0.50000000       0.028
   0.44444444  0.25000000  0.50000000       0.028
   0.00000000  0.50000000  0.50000000       0.007
   0.11111111  0.50000000  0.50000000       0.014
   0.22222222  0.50000000  0.50000000       0.014
   0.33333333  0.50000000  0.50000000       0.014
   0.44444444  0.50000000  0.50000000       0.014
 
 position of ions in fractional coordinates (direct lattice) 
   0.99733000  0.00116000  0.75000000
   0.00267000  0.99884000  0.25000000
   0.99733000  0.49884000  0.25000000
   0.00267000  0.50116000  0.75000000
   0.50354000  0.75000000  0.50000000
   0.49646000  0.25000000  0.50000000
   0.49646000  0.25000000  0.00000000
   0.50354000  0.75000000  0.00000000
   0.51925000  0.75282000  0.75000000
   0.48075000  0.24718000  0.25000000
   0.51925000  0.74718000  0.25000000
   0.48075000  0.25282000  0.75000000
 
 position of ions in cartesian coordinates  (Angst):
   3.40688925  0.00854524  5.46286500
   0.00912075  7.35804476  1.82095500
   3.40688925  3.67474976  1.82095500
   0.00912075  3.69184024  5.46286500
   1.72009768  5.52494250  3.64191000
   1.69591232  1.84164750  3.64191000
   1.69591232  1.84164750  0.00000000
   1.72009768  5.52494250  0.00000000
   1.77376319  5.54571628  5.46286500
   1.64224681  1.82087372  1.82095500
   1.77376319  5.50416872  1.82095500
   1.64224681  1.86242128  5.46286500
 


--------------------------------------------------------------------------------------------------------


 k-point  1 :   0.0000 0.0000 0.0000  plane waves:    3353
 k-point  2 :   0.1111 0.0000 0.0000  plane waves:    3323
 k-point  3 :   0.2222 0.0000 0.0000  plane waves:    3323
 k-point  4 :   0.3333 0.0000 0.0000  plane waves:    3321
 k-point  5 :   0.4444 0.0000 0.0000  plane waves:    3300
 k-point  6 :   0.0000 0.2500 0.0000  plane waves:    3348
 k-point  7 :   0.1111 0.2500 0.0000  plane waves:    3339
 k-point  8 :   0.2222 0.2500 0.0000  plane waves:    3329
 k-point  9 :   0.3333 0.2500 0.0000  plane waves:    3333
 k-point 10 :   0.4444 0.2500 0.0000  plane waves:    3315
 k-point 11 :   0.0000 0.5000 0.0000  plane waves:    3328
 k-point 12 :   0.1111 0.5000 0.0000  plane waves:    3352
 k-point 13 :   0.2222 0.5000 0.0000  plane waves:    3342
 k-point 14 :   0.3333 0.5000 0.0000  plane waves:    3316
 k-point 15 :   0.4444 0.5000 0.0000  plane waves:    3320
 k-point 16 :   0.0000 0.0000 0.2500  plane waves:    3340
 k-point 17 :   0.1111 0.0000 0.2500  plane waves:    3345
 k-point 18 :   0.2222 0.0000 0.2500  plane waves:    3322
 k-point 19 :   0.3333 0.0000 0.2500  plane waves:    3319
 k-point 20 :   0.4444 0.0000 0.2500  plane waves:    3306
 k-point 21 :   0.0000 0.2500 0.2500  plane waves:    3341
 k-point 22 :   0.1111 0.2500 0.2500  plane waves:    3334
 k-point 23 :   0.2222 0.2500 0.2500  plane waves:    3328
 k-point 24 :   0.3333 0.2500 0.2500  plane waves:    3333
 k-point 25 :   0.4444 0.2500 0.2500  plane waves:    3318
 k-point 26 :   0.0000 0.5000 0.2500  plane waves:    3338
 k-point 27 :   0.1111 0.5000 0.2500  plane waves:    3344
 k-point 28 :   0.2222 0.5000 0.2500  plane waves:    3342
 k-point 29 :   0.3333 0.5000 0.2500  plane waves:    3336
 k-point 30 :   0.4444 0.5000 0.2500  plane waves:    3310
 k-point 31 :   0.0000 0.0000 0.5000  plane waves:    3376
 k-point 32 :   0.1111 0.0000 0.5000  plane waves:    3348
 k-point 33 :   0.2222 0.0000 0.5000  plane waves:    3334
 k-point 34 :   0.3333 0.0000 0.5000  plane waves:    3314
 k-point 35 :   0.4444 0.0000 0.5000  plane waves:    3316
 k-point 36 :   0.0000 0.2500 0.5000  plane waves:    3332
 k-point 37 :   0.1111 0.2500 0.5000  plane waves:    3350
 k-point 38 :   0.2222 0.2500 0.5000  plane waves:    3344
 k-point 39 :   0.3333 0.2500 0.5000  plane waves:    3318
 k-point 40 :   0.4444 0.2500 0.5000  plane waves:    3310
 k-point 41 :   0.0000 0.5000 0.5000  plane waves:    3344
 k-point 42 :   0.1111 0.5000 0.5000  plane waves:    3352
 k-point 43 :   0.2222 0.5000 0.5000  plane waves:    3332
 k-point 44 :   0.3333 0.5000 0.5000  plane waves:    3320
 k-point 45 :   0.4444 0.5000 0.5000  plane waves:    3324

 maximum and minimum number of plane-waves per node :       498      457

 maximum number of plane-waves:      3376
 maximum index in each direction: 
   IXMAX=    5   IYMAX=   12   IZMAX=   11
   IXMIN=   -6   IYMIN=  -12   IZMIN=  -12


 parallel 3D FFT for wavefunctions:
    minimum data exchange during FFTs selected (reduces bandwidth)
 parallel 3D FFT for charge:
    minimum data exchange during FFTs selected (reduces bandwidth)


 total amount of memory used by VASP MPI-rank0    46162. kBytes
=======================================================================

   base      :      30000. kBytes
   nonl-proj :       9816. kBytes
   fftplans  :        858. kBytes
   grid      :       1569. kBytes
   one-center:         31. kBytes
   wavefun   :       3888. kBytes
 
     INWAV:  cpu time    0.0000: real time    0.0000
 Broyden mixing: mesh for mixing (old mesh)
   NGX = 11   NGY = 25   NGZ = 23
  (NGX  = 48   NGY  = 96   NGZ  = 96)
  gives a total of   6325 points

 initial charge density was supplied:
 charge density of overlapping atoms calculated
 number of electron      84.0000000 magnetization 
 keeping initial charge density in first step


--------------------------------------------------------------------------------------------------------


 Maximum index for augmentation-charges          890 (set IRDMAX)


--------------------------------------------------------------------------------------------------------


 First call to EWALD:  gamma=   0.312
 Maximum number of real-space cells 4x 2x 2
 Maximum number of reciprocal cells 2x 3x 3

    FEWALD:  cpu time    0.0014: real time    0.0014


--------------------------------------- Iteration      1(   1)  ---------------------------------------


    POTLOK:  cpu time    0.0180: real time    0.0180
    SETDIJ:  cpu time    0.0035: real time    0.0035
     EDDAV:  cpu time    1.3053: real time    1.3055
       DOS:  cpu time    0.0023: real time    0.0023
    --------------------------------------------
      LOOP:  cpu time    1.3292: real time    1.3294

 eigenvalue-minimisations  :  4500
 total energy-change (2. order) : 0.8076132E+03  (-0.3258035E+04)
 number of electron      84.0000000 magnetization 
 augmentation part       84.0000000 magnetization 

 Free energy of the ion-electron system (eV)
  ---------------------------------------------------
  alpha Z        PSCENC =       433.12062459
  Ewald energy   TEWEN  =     -5309.78256382
  -Hartree energ DENC   =     -1512.05290507
  -exchange      EXHF   =         0.00000000
  -V(xc)+E(xc)   XCENC  =       212.68786700
  PAW double counting   =      5377.77692215    -5365.08700770
  entropy T*S    EENTRO =        -0.00035995
  eigenvalues    EBANDS =       284.71100298
  atomic energy  EATOM  =      6686.23959825
  Solvation  Ediel_sol  =         0.00000000
  ---------------------------------------------------
  free energy    TOTEN  =       807.61317844 eV

  energy without entropy =      807.61353839  energy(sigma->0) =      807.61335841


--------------------------------------------------------------------------------------------------------




--------------------------------------- Iteration      1(   2)  ---------------------------------------


     EDDAV:  cpu time    1.2834: real time    1.2835
       DOS:  cpu time    0.0023: real time    0.0023
    --------------------------------------------
      LOOP:  cpu time    1.2857: real time    1.2857

 eigenvalue-minimisations  :  4540
 total energy-change (2. order) :-0.7916475E+03  (-0.7777763E+03)
 number of electron      84.0000000 magnetization 
 augmentation part       84.0000000 magnetization 

 Free energy of the ion-electron system (eV)
  ---------------------------------------------------
  alpha Z        PSCENC =       433.12062459
  Ewald energy   TEWEN  =     -5309.78256382
  -Hartree energ DENC   =     -1512.05290507
  -exchange      EXHF   =         0.00000000
  -V(xc)+E(xc)   XCENC  =       212.68786700
  PAW double counting   =      5377.77692215    -5365.08700770
  entropy T*S    EENTRO =        -0.00028346
  eigenvalues    EBANDS =      -506.93652986
  atomic energy  EATOM  =      6686.23959825
  Solvation  Ediel_sol  =         0.00000000
  ---------------------------------------------------
  free energy    TOTEN  =        15.96572209 eV

  energy without entropy =       15.96600555  energy(sigma->0) =       15.96586382


--------------------------------------------------------------------------------------------------------




--------------------------------------- Iteration      1(   3)  ---------------------------------------


     EDDAV:  cpu time    1.9356: real time    1.9357
       DOS:  cpu time    0.0022: real time    0.0022
    --------------------------------------------
      LOOP:  cpu time    1.9378: real time    1.9379

 eigenvalue-minimisations  :  7750
 total energy-change (2. order) :-0.9479996E+02  (-0.9037298E+02)
 number of electron      84.0000000 magnetization 
 augmentation part       84.0000000 magnetization 

 Free energy of the ion-electron system (eV)
  ---------------------------------------------------
  alpha Z        PSCENC =       433.12062459
  Ewald energy   TEWEN  =     -5309.78256382
  -Hartree energ DENC   =     -1512.05290507
  -exchange      EXHF   =         0.00000000
  -V(xc)+E(xc)   XCENC  =       212.68786700
  PAW double counting   =      5377.77692215    -5365.08700770
  entropy T*S    EENTRO =        -0.00043385
  eigenvalues    EBANDS =      -601.73633527
  atomic energy  EATOM  =      6686.23959825
  Solvation  Ediel_sol  =         0.00000000
  ---------------------------------------------------
  free energy    TOTEN  =       -78.83423371 eV

  energy without entropy =      -78.83379986  energy(sigma->0) =      -78.83401678


--------------------------------------------------------------------------------------------------------




--------------------------------------- Iteration      1(   4)  ---------------------------------------


     EDDAV:  cpu time    1.9685: real time    1.9686
       DOS:  cpu time    0.0024: real time    0.0024
    --------------------------------------------
      LOOP:  cpu time    1.9709: real time    1.9825

 eigenvalue-minimisations  :  7960
 total energy-change (2. order) :-0.8082908E+01  (-0.7956452E+01)
 number of electron      84.0000000 magnetization 
 augmentation part       84.0000000 magnetization 

 Free energy of the ion-electron system (eV)
  ---------------------------------------------------
  alpha Z        PSCENC =       433.12062459
  Ewald energy   TEWEN  =     -5309.78256382
  -Hartree energ DENC   =     -1512.05290507
  -exchange      EXHF   =         0.00000000
  -V(xc)+E(xc)   XCENC  =       212.68786700
  PAW double counting   =      5377.77692215    -5365.08700770
  entropy T*S    EENTRO =        -0.00068002
  eigenvalues    EBANDS =      -609.81899718
  atomic energy  EATOM  =      6686.23959825
  Solvation  Ediel_sol  =         0.00000000
  ---------------------------------------------------
  free energy    TOTEN  =       -86.91714179 eV

  energy without entropy =      -86.91646177  energy(sigma->0) =      -86.91680178


--------------------------------------------------------------------------------------------------------




--------------------------------------- Iteration      1(   5)  ---------------------------------------


     EDDAV:  cpu time    1.9505: real time    1.9621
       DOS:  cpu time    0.0023: real time    0.0023
    CHARGE:  cpu time    0.0582: real time    0.0582
    MIXING:  cpu time    0.0006: real time    0.0006
    --------------------------------------------
      LOOP:  cpu time    2.0116: real time    2.0117

 eigenvalue-minimisations  :  7900
 total energy-change (2. order) :-0.4837562E+00  (-0.4826938E+00)
 number of electron      84.0000020 magnetization 
 augmentation part       19.2198538 magnetization 

 Broyden mixing:
  rms(total) = 0.53007E+01    rms(broyden)= 0.53006E+01
  rms(prec ) = 0.84756E+01
  weight for this iteration     100.00

 Free energy of the ion-electron system (eV)
  ---------------------------------------------------
  alpha Z        PSCENC =       433.12062459
  Ewald energy   TEWEN  =     -5309.78256382
  -Hartree energ DENC   =     -1512.05290507
  -exchange      EXHF   =         0.00000000
  -V(xc)+E(xc)   XCENC  =       212.68786700
  PAW double counting   =      5377.77692215    -5365.08700770
  entropy T*S    EENTRO =        -0.00060349
  eigenvalues    EBANDS =      -610.30282990
  atomic energy  EATOM  =      6686.23959825
  Solvation  Ediel_sol  =         0.00000000
  ---------------------------------------------------
  free energy    TOTEN  =       -87.40089799 eV

  energy without entropy =      -87.40029449  energy(sigma->0) =      -87.40059624


--------------------------------------------------------------------------------------------------------




--------------------------------------- Iteration      1(   6)  ---------------------------------------


    POTLOK:  cpu time    0.0135: real time    0.0135
    SETDIJ:  cpu time    0.0031: real time    0.0031
     EDDAV:  cpu time    1.5625: real time    1.5626
       DOS:  cpu time    0.0024: real time    0.0024
    CHARGE:  cpu time    0.0581: real time    0.0581
    MIXING:  cpu time    0.0006: real time    0.0006
    --------------------------------------------
      LOOP:  cpu time    1.6403: real time    1.6403

 eigenvalue-minimisations  :  6000
 total energy-change (2. order) :-0.1225697E+03  (-0.1376864E+03)
 number of electron      84.0000096 magnetization 
 augmentation part       40.8578751 magnetization 

 Broyden mixing:
  rms(total) = 0.15587E+02    rms(broyden)= 0.15587E+02
  rms(prec ) = 0.18709E+02
  weight for this iteration     100.00

 eigenvalues of (default mixing * dielectric matrix)
  average eigenvalue GAMMA=   0.1410
  0.1410

 Free energy of the ion-electron system (eV)
  ---------------------------------------------------
  alpha Z        PSCENC =       433.12062459
  Ewald energy   TEWEN  =     -5309.78256382
  -Hartree energ DENC   =     -1310.34313567
  -exchange      EXHF   =         0.00000000
  -V(xc)+E(xc)   XCENC  =       204.84760144
  PAW double counting   =      5475.95259992    -5441.04007577
  entropy T*S    EENTRO =        -0.00006429
  eigenvalues    EBANDS =      -948.96514669
  atomic energy  EATOM  =      6686.23959825
  Solvation  Ediel_sol  =         0.00000000
  ---------------------------------------------------
  free energy    TOTEN  =      -209.97056203 eV

  energy without entropy =     -209.97049773  energy(sigma->0) =     -209.97052988


--------------------------------------------------------------------------------------------------------




--------------------------------------- Iteration      1(   7)  ---------------------------------------


    POTLOK:  cpu time    0.0135: real time    0.0135
    SETDIJ:  cpu time    0.0031: real time    0.0031
     EDDAV:  cpu time    1.6315: real time    1.6316
       DOS:  cpu time    0.0024: real time    0.0024
    CHARGE:  cpu time    0.0569: real time    0.0703
    MIXING:  cpu time    0.0007: real time    0.0007
    --------------------------------------------
      LOOP:  cpu time    1.7080: real time    1.7216

 eigenvalue-minimisations  :  6350
 total energy-change (2. order) : 0.1138901E+03  (-0.2475544E+02)
 number of electron      84.0000080 magnetization 
 augmentation part       36.2571777 magnetization 

 Broyden mixing:
  rms(total) = 0.52720E+01    rms(broyden)= 0.52719E+01
  rms(prec ) = 0.86565E+01
  weight for this iteration     100.00

 eigenvalues of (default mixing * dielectric matrix)
  average eigenvalue GAMMA=   0.4010
  0.4010  0.4010

 Free energy of the ion-electron system (eV)
  ---------------------------------------------------
  alpha Z        PSCENC =       433.12062459
  Ewald energy   TEWEN  =     -5309.78256382
  -Hartree energ DENC   =     -1393.64687413
  -exchange      EXHF   =         0.00000000
  -V(xc)+E(xc)   XCENC  =       208.39586813
  PAW double counting   =      5917.86687736    -5911.52385029
  entropy T*S    EENTRO =        -0.00040277
  eigenvalues    EBANDS =      -726.74977970
  atomic energy  EATOM  =      6686.23959825
  Solvation  Ediel_sol  =         0.00000000
  ---------------------------------------------------
  free energy    TOTEN  =       -96.08050237 eV

  energy without entropy =      -96.08009960  energy(sigma->0) =      -96.08030099


--------------------------------------------------------------------------------------------------------




--------------------------------------- Iteration      1(   8)  ---------------------------------------


    POTLOK:  cpu time    0.0134: real time    0.0134
    SETDIJ:  cpu time    0.0030: real time    0.0030
     EDDAV:  cpu time    1.7377: real time    1.7378
       DOS:  cpu time    0.0023: real time    0.0023
    CHARGE:  cpu time    0.0574: real time    0.0574
    MIXING:  cpu time    0.0006: real time    0.0006
    --------------------------------------------
      LOOP:  cpu time    1.8145: real time    1.8146

 eigenvalue-minimisations  :  6900
 total energy-change (2. order) : 0.3765554E+02  (-0.1458045E+02)
 number of electron      84.0000039 magnetization 
 augmentation part       26.8097200 magnetization 

 Broyden mixing:
  rms(total) = 0.10375E+01    rms(broyden)= 0.10362E+01
  rms(prec ) = 0.11837E+01
  weight for this iteration     100.00

 eigenvalues of (default mixing * dielectric matrix)
  average eigenvalue GAMMA=   0.6256
  1.0947  0.3910  0.3910

 Free energy of the ion-electron system (eV)
  ---------------------------------------------------
  alpha Z        PSCENC =       433.12062459
  Ewald energy   TEWEN  =     -5309.78256382
  -Hartree energ DENC   =     -1459.13192288
  -exchange      EXHF   =         0.00000000
  -V(xc)+E(xc)   XCENC  =       211.02794630
  PAW double counting   =      6002.92876978    -6013.66944305
  entropy T*S    EENTRO =        -0.00057487
  eigenvalues    EBANDS =      -609.15740060
  atomic energy  EATOM  =      6686.23959825
  Solvation  Ediel_sol  =         0.00000000
  ---------------------------------------------------
  free energy    TOTEN  =       -58.42496629 eV

  energy without entropy =      -58.42439142  energy(sigma->0) =      -58.42467886


--------------------------------------------------------------------------------------------------------




--------------------------------------- Iteration      1(   9)  ---------------------------------------


    POTLOK:  cpu time    0.0136: real time    0.0136
    SETDIJ:  cpu time    0.0030: real time    0.0031
     EDDAV:  cpu time    1.9670: real time    1.9671
       DOS:  cpu time    0.0025: real time    0.0025
    CHARGE:  cpu time    0.0576: real time    0.0577
    MIXING:  cpu time    0.0007: real time    0.0007
    --------------------------------------------
      LOOP:  cpu time    2.0445: real time    2.0446

 eigenvalue-minimisations  :  7950
 total energy-change (2. order) :-0.9628549E+00  (-0.1300629E+01)
 number of electron      84.0000041 magnetization 
 augmentation part       27.4285892 magnetization 

 Broyden mixing:
  rms(total) = 0.77756E+00    rms(broyden)= 0.77738E+00
  rms(prec ) = 0.89342E+00
  weight for this iteration     100.00

 eigenvalues of (default mixing * dielectric matrix)
  average eigenvalue GAMMA=   0.7952
  0.3925  0.3925  1.1978  1.1978

 Free energy of the ion-electron system (eV)
  ---------------------------------------------------
  alpha Z        PSCENC =       433.12062459
  Ewald energy   TEWEN  =     -5309.78256382
  -Hartree energ DENC   =     -1442.66712375
  -exchange      EXHF   =         0.00000000
  -V(xc)+E(xc)   XCENC  =       210.33121735
  PAW double counting   =      6253.01365104    -6272.23260470
  entropy T*S    EENTRO =        -0.00086350
  eigenvalues    EBANDS =      -617.40975668
  atomic energy  EATOM  =      6686.23959825
  Solvation  Ediel_sol  =         0.00000000
  ---------------------------------------------------
  free energy    TOTEN  =       -59.38782122 eV

  energy without entropy =      -59.38695772  energy(sigma->0) =      -59.38738947


--------------------------------------------------------------------------------------------------------




--------------------------------------- Iteration      1(  10)  ---------------------------------------


    POTLOK:  cpu time    0.0134: real time    0.0134
    SETDIJ:  cpu time    0.0031: real time    0.0031
     EDDAV:  cpu time    1.7911: real time    1.7912
       DOS:  cpu time    0.0024: real time    0.0025
    CHARGE:  cpu time    0.0568: real time    0.0708
    MIXING:  cpu time    0.0007: real time    0.0007
    --------------------------------------------
      LOOP:  cpu time    1.8676: real time    1.8817

 eigenvalue-minimisations  :  7150
 total energy-change (2. order) : 0.2904954E-01  (-0.7752053E-01)
 number of electron      84.0000041 magnetization 
 augmentation part       26.8741444 magnetization 

 Broyden mixing:
  rms(total) = 0.51801E+00    rms(broyden)= 0.51782E+00
  rms(prec ) = 0.53067E+00
  weight for this iteration     100.00

 eigenvalues of (default mixing * dielectric matrix)
  average eigenvalue GAMMA=   0.8359
  0.3907  0.3907  1.3921  1.2340  0.7721

 Free energy of the ion-electron system (eV)
  ---------------------------------------------------
  alpha Z        PSCENC =       433.12062459
  Ewald energy   TEWEN  =     -5309.78256382
  -Hartree energ DENC   =     -1443.13235316
  -exchange      EXHF   =         0.00000000
  -V(xc)+E(xc)   XCENC  =       210.42036510
  PAW double counting   =      6364.20341380    -6383.69715223
  entropy T*S    EENTRO =        -0.00118269
  eigenvalues    EBANDS =      -616.72952154
  atomic energy  EATOM  =      6686.23959825
  Solvation  Ediel_sol  =         0.00000000
  ---------------------------------------------------
  free energy    TOTEN  =       -59.35877168 eV

  energy without entropy =      -59.35758899  energy(sigma->0) =      -59.35818034


--------------------------------------------------------------------------------------------------------




--------------------------------------- Iteration      1(  11)  ---------------------------------------


    POTLOK:  cpu time    0.0134: real time    0.0134
    SETDIJ:  cpu time    0.0030: real time    0.0030
     EDDAV:  cpu time    1.7712: real time    1.7712
       DOS:  cpu time    0.0023: real time    0.0023
    CHARGE:  cpu time    0.0580: real time    0.0580
    MIXING:  cpu time    0.0007: real time    0.0007
    --------------------------------------------
      LOOP:  cpu time    1.8487: real time    1.8487

 eigenvalue-minimisations  :  7030
 total energy-change (2. order) :-0.5489368E-01  (-0.2775479E-01)
 number of electron      84.0000041 magnetization 
 augmentation part       27.4763527 magnetization 

 Broyden mixing:
  rms(total) = 0.53335E+00    rms(broyden)= 0.53316E+00
  rms(prec ) = 0.71839E+00
  weight for this iteration     100.00

 eigenvalues of (default mixing * dielectric matrix)
  average eigenvalue GAMMA=   0.9493
  1.7973  1.7973  0.3928  0.3928  0.6579  0.6579

 Free energy of the ion-electron system (eV)
  ---------------------------------------------------
  alpha Z        PSCENC =       433.12062459
  Ewald energy   TEWEN  =     -5309.78256382
  -Hartree energ DENC   =     -1441.08762700
  -exchange      EXHF   =         0.00000000
  -V(xc)+E(xc)   XCENC  =       210.38780187
  PAW double counting   =      6454.43140960    -6474.64700923
  entropy T*S    EENTRO =        -0.00105410
  eigenvalues    EBANDS =      -618.07484554
  atomic energy  EATOM  =      6686.23959825
  Solvation  Ediel_sol  =         0.00000000
  ---------------------------------------------------
  free energy    TOTEN  =       -59.41366536 eV

  energy without entropy =      -59.41261126  energy(sigma->0) =      -59.41313831


--------------------------------------------------------------------------------------------------------




--------------------------------------- Iteration      1(  12)  ---------------------------------------


    POTLOK:  cpu time    0.0136: real time    0.0136
    SETDIJ:  cpu time    0.0037: real time    0.0037
     EDDAV:  cpu time    1.7098: real time    1.7099
       DOS:  cpu time    0.0024: real time    0.0024
    CHARGE:  cpu time    0.0577: real time    0.0578
    MIXING:  cpu time    0.0008: real time    0.0008
    --------------------------------------------
      LOOP:  cpu time    1.7881: real time    1.7882

 eigenvalue-minimisations  :  6760
 total energy-change (2. order) : 0.5595026E-01  (-0.4429307E-01)
 number of electron      84.0000041 magnetization 
 augmentation part       26.7355026 magnetization 

 Broyden mixing:
  rms(total) = 0.26202E+00    rms(broyden)= 0.26160E+00
  rms(prec ) = 0.28801E+00
  weight for this iteration     100.00

 eigenvalues of (default mixing * dielectric matrix)
  average eigenvalue GAMMA=   1.0016
  2.2590  1.3276  1.3276  0.8770  0.3928  0.3928  0.4341

 Free energy of the ion-electron system (eV)
  ---------------------------------------------------
  alpha Z        PSCENC =       433.12062459
  Ewald energy   TEWEN  =     -5309.78256382
  -Hartree energ DENC   =     -1443.90357174
  -exchange      EXHF   =         0.00000000
  -V(xc)+E(xc)   XCENC  =       210.51645890
  PAW double counting   =      6476.05464180    -6495.49287872
  entropy T*S    EENTRO =        -0.00099136
  eigenvalues    EBANDS =      -616.10903301
  atomic energy  EATOM  =      6686.23959825
  Solvation  Ediel_sol  =         0.00000000
  ---------------------------------------------------
  free energy    TOTEN  =       -59.35771510 eV

  energy without entropy =      -59.35672374  energy(sigma->0) =      -59.35721942


--------------------------------------------------------------------------------------------------------




--------------------------------------- Iteration      1(  13)  ---------------------------------------


    POTLOK:  cpu time    0.0135: real time    0.0135
    SETDIJ:  cpu time    0.0030: real time    0.0030
     EDDAV:  cpu time    1.6184: real time    1.6186
       DOS:  cpu time    0.0025: real time    0.0025
    CHARGE:  cpu time    0.0576: real time    0.0582
    MIXING:  cpu time    0.0009: real time    0.0009
    --------------------------------------------
      LOOP:  cpu time    1.6958: real time    1.6966

 eigenvalue-minimisations  :  6270
 total energy-change (2. order) : 0.9920776E-02  (-0.4672522E-02)
 number of electron      84.0000040 magnetization 
 augmentation part       27.0453754 magnetization 

 Broyden mixing:
  rms(total) = 0.19061E+00    rms(broyden)= 0.19038E+00
  rms(prec ) = 0.24296E+00
  weight for this iteration     100.00

 eigenvalues of (default mixing * dielectric matrix)
  average eigenvalue GAMMA=   1.0377
  1.9930  1.9930  0.3927  0.3927  1.2656  0.9877  0.8689  0.4084

 Free energy of the ion-electron system (eV)
  ---------------------------------------------------
  alpha Z        PSCENC =       433.12062459
  Ewald energy   TEWEN  =     -5309.78256382
  -Hartree energ DENC   =     -1443.26493047
  -exchange      EXHF   =         0.00000000
  -V(xc)+E(xc)   XCENC  =       210.51087542
  PAW double counting   =      6504.73571941    -6524.61707260
  entropy T*S    EENTRO =        -0.00146784
  eigenvalues    EBANDS =      -616.28857727
  atomic energy  EATOM  =      6686.23959825
  Solvation  Ediel_sol  =         0.00000000
  ---------------------------------------------------
  free energy    TOTEN  =       -59.34779432 eV

  energy without entropy =      -59.34632648  energy(sigma->0) =      -59.34706040


--------------------------------------------------------------------------------------------------------




--------------------------------------- Iteration      1(  14)  ---------------------------------------


    POTLOK:  cpu time    0.0135: real time    0.0135
    SETDIJ:  cpu time    0.0031: real time    0.0031
     EDDAV:  cpu time    1.9444: real time    1.9445
       DOS:  cpu time    0.0024: real time    0.0024
    CHARGE:  cpu time    0.0584: real time    0.0585
    MIXING:  cpu time    0.0009: real time    0.0009
    --------------------------------------------
      LOOP:  cpu time    2.0227: real time    2.0229

 eigenvalue-minimisations  :  7850
 total energy-change (2. order) : 0.4683442E-02  (-0.1220476E-02)
 number of electron      84.0000041 magnetization 
 augmentation part       26.9156130 magnetization 

 Broyden mixing:
  rms(total) = 0.11112E+00    rms(broyden)= 0.11106E+00
  rms(prec ) = 0.12524E+00
  weight for this iteration     100.00

 eigenvalues of (default mixing * dielectric matrix)
  average eigenvalue GAMMA=   1.0585
  2.2470  2.2470  1.2096  1.2096  0.3927  0.3927  0.8327  0.6018  0.3936

 Free energy of the ion-electron system (eV)
  ---------------------------------------------------
  alpha Z        PSCENC =       433.12062459
  Ewald energy   TEWEN  =     -5309.78256382
  -Hartree energ DENC   =     -1443.74683200
  -exchange      EXHF   =         0.00000000
  -V(xc)+E(xc)   XCENC  =       210.52512949
  PAW double counting   =      6495.04098074    -6514.79573513
  entropy T*S    EENTRO =        -0.00123104
  eigenvalues    EBANDS =      -615.94308196
  atomic energy  EATOM  =      6686.23959825
  Solvation  Ediel_sol  =         0.00000000
  ---------------------------------------------------
  free energy    TOTEN  =       -59.34311088 eV

  energy without entropy =      -59.34187984  energy(sigma->0) =      -59.34249536


--------------------------------------------------------------------------------------------------------




--------------------------------------- Iteration      1(  15)  ---------------------------------------


    POTLOK:  cpu time    0.0137: real time    0.0137
    SETDIJ:  cpu time    0.0030: real time    0.0030
     EDDAV:  cpu time    1.6453: real time    1.6454
       DOS:  cpu time    0.0022: real time    0.0022
    CHARGE:  cpu time    0.0583: real time    0.0583
    MIXING:  cpu time    0.0009: real time    0.0009
    --------------------------------------------
      LOOP:  cpu time    1.7234: real time    1.7234

 eigenvalue-minimisations  :  6310
 total energy-change (2. order) : 0.1721785E-02  (-0.2313387E-03)
 number of electron      84.0000041 magnetization 
 augmentation part       26.8707440 magnetization 

 Broyden mixing:
  rms(total) = 0.80391E-01    rms(broyden)= 0.80391E-01
  rms(prec ) = 0.84289E-01
  weight for this iteration     100.00

 eigenvalues of (default mixing * dielectric matrix)
  average eigenvalue GAMMA=   1.1840
  2.8987  2.8987  1.2933  1.2933  0.3927  0.3927  0.8765  0.6942  0.6942  0.4061

 Free energy of the ion-electron system (eV)
  ---------------------------------------------------
  alpha Z        PSCENC =       433.12062459
  Ewald energy   TEWEN  =     -5309.78256382
  -Hartree energ DENC   =     -1444.07944337
  -exchange      EXHF   =         0.00000000
  -V(xc)+E(xc)   XCENC  =       210.53787282
  PAW double counting   =      6490.62426300    -6510.28330932
  entropy T*S    EENTRO =        -0.00115554
  eigenvalues    EBANDS =      -615.71727570
  atomic energy  EATOM  =      6686.23959825
  Solvation  Ediel_sol  =         0.00000000
  ---------------------------------------------------
  free energy    TOTEN  =       -59.34138909 eV

  energy without entropy =      -59.34023355  energy(sigma->0) =      -59.34081132


--------------------------------------------------------------------------------------------------------




--------------------------------------- Iteration      1(  16)  ---------------------------------------


    POTLOK:  cpu time    0.0135: real time    0.0135
    SETDIJ:  cpu time    0.0030: real time    0.0030
     EDDAV:  cpu time    1.6845: real time    1.6847
       DOS:  cpu time    0.0024: real time    0.0024
    CHARGE:  cpu time    0.0570: real time    0.0647
    MIXING:  cpu time    0.0010: real time    0.0010
    --------------------------------------------
      LOOP:  cpu time    1.7615: real time    1.7693

 eigenvalue-minimisations  :  6570
 total energy-change (2. order) : 0.3610485E-03  (-0.9817734E-04)
 number of electron      84.0000041 magnetization 
 augmentation part       26.8446891 magnetization 

 Broyden mixing:
  rms(total) = 0.33379E-01    rms(broyden)= 0.33377E-01
  rms(prec ) = 0.34960E-01
  weight for this iteration     100.00

 eigenvalues of (default mixing * dielectric matrix)
  average eigenvalue GAMMA=   1.1792
  2.4953  2.4953  1.9915  0.3927  0.3927  1.2981  1.0239  1.0239  0.7656  0.6892
  0.4030

 Free energy of the ion-electron system (eV)
  ---------------------------------------------------
  alpha Z        PSCENC =       433.12062459
  Ewald energy   TEWEN  =     -5309.78256382
  -Hartree energ DENC   =     -1444.49899643
  -exchange      EXHF   =         0.00000000
  -V(xc)+E(xc)   XCENC  =       210.55594653
  PAW double counting   =      6486.55132746    -6506.12114704
  entropy T*S    EENTRO =        -0.00108167
  eigenvalues    EBANDS =      -615.40473593
  atomic energy  EATOM  =      6686.23959825
  Solvation  Ediel_sol  =         0.00000000
  ---------------------------------------------------
  free energy    TOTEN  =       -59.34102805 eV

  energy without entropy =      -59.33994638  energy(sigma->0) =      -59.34048721


--------------------------------------------------------------------------------------------------------




--------------------------------------- Iteration      1(  17)  ---------------------------------------


    POTLOK:  cpu time    0.0134: real time    0.0134
    SETDIJ:  cpu time    0.0031: real time    0.0031
     EDDAV:  cpu time    1.7848: real time    1.7849
       DOS:  cpu time    0.0024: real time    0.0024
    CHARGE:  cpu time    0.0577: real time    0.0577
    MIXING:  cpu time    0.0010: real time    0.0010
    --------------------------------------------
      LOOP:  cpu time    1.8624: real time    1.8625

 eigenvalue-minimisations  :  6920
 total energy-change (2. order) : 0.9682117E-05  (-0.2917774E-04)
 number of electron      84.0000040 magnetization 
 augmentation part       26.8312114 magnetization 

 Broyden mixing:
  rms(total) = 0.22242E-01    rms(broyden)= 0.22241E-01
  rms(prec ) = 0.24740E-01
  weight for this iteration     100.00

 eigenvalues of (default mixing * dielectric matrix)
  average eigenvalue GAMMA=   1.1907
  2.8374  2.8374  2.0309  1.2693  1.0932  1.0629  0.3927  0.3927  0.4041  0.7305
  0.6187  0.6187

 Free energy of the ion-electron system (eV)
  ---------------------------------------------------
  alpha Z        PSCENC =       433.12062459
  Ewald energy   TEWEN  =     -5309.78256382
  -Hartree energ DENC   =     -1444.65686208
  -exchange      EXHF   =         0.00000000
  -V(xc)+E(xc)   XCENC  =       210.56345485
  PAW double counting   =      6486.86085854    -6506.42842403
  entropy T*S    EENTRO =        -0.00106615
  eigenvalues    EBANDS =      -615.25663852
  atomic energy  EATOM  =      6686.23959825
  Solvation  Ediel_sol  =         0.00000000
  ---------------------------------------------------
  free energy    TOTEN  =       -59.34101836 eV

  energy without entropy =      -59.33995221  energy(sigma->0) =      -59.34048529


--------------------------------------------------------------------------------------------------------




--------------------------------------- Iteration      1(  18)  ---------------------------------------


    POTLOK:  cpu time    0.0135: real time    0.0135
    SETDIJ:  cpu time    0.0030: real time    0.0030
     EDDAV:  cpu time    1.5509: real time    1.5511
       DOS:  cpu time    0.0024: real time    0.0024
    CHARGE:  cpu time    0.0578: real time    0.0578
    MIXING:  cpu time    0.0010: real time    0.0010
    --------------------------------------------
      LOOP:  cpu time    1.6287: real time    1.6288

 eigenvalue-minimisations  :  5800
 total energy-change (2. order) : 0.4168082E-04  (-0.1210603E-04)
 number of electron      84.0000040 magnetization 
 augmentation part       26.8373563 magnetization 

 Broyden mixing:
  rms(total) = 0.73231E-02    rms(broyden)= 0.73191E-02
  rms(prec ) = 0.82517E-02
  weight for this iteration     100.00

 eigenvalues of (default mixing * dielectric matrix)
  average eigenvalue GAMMA=   1.3023
  3.8108  2.8695  2.0843  1.6259  0.3927  0.3927  1.0495  1.0495  0.9632  0.8273
  0.8273  0.4036  0.6336

 Free energy of the ion-electron system (eV)
  ---------------------------------------------------
  alpha Z        PSCENC =       433.12062459
  Ewald energy   TEWEN  =     -5309.78256382
  -Hartree energ DENC   =     -1444.81126247
  -exchange      EXHF   =         0.00000000
  -V(xc)+E(xc)   XCENC  =       210.56927353
  PAW double counting   =      6484.86509679    -6504.40030599
  entropy T*S    EENTRO =        -0.00109426
  eigenvalues    EBANDS =      -615.14034331
  atomic energy  EATOM  =      6686.23959825
  Solvation  Ediel_sol  =         0.00000000
  ---------------------------------------------------
  free energy    TOTEN  =       -59.34097668 eV

  energy without entropy =      -59.33988242  energy(sigma->0) =      -59.34042955


--------------------------------------------------------------------------------------------------------




--------------------------------------- Iteration      1(  19)  ---------------------------------------


    POTLOK:  cpu time    0.0137: real time    0.0137
    SETDIJ:  cpu time    0.0031: real time    0.0031
     EDDAV:  cpu time    1.0967: real time    1.0968
       DOS:  cpu time    0.0023: real time    0.0023
    CHARGE:  cpu time    0.0579: real time    0.0580
    MIXING:  cpu time    0.0011: real time    0.0011
    --------------------------------------------
      LOOP:  cpu time    1.1749: real time    1.1750

 eigenvalue-minimisations  :  3200
 total energy-change (2. order) :-0.1052746E-04  (-0.8682825E-06)
 number of electron      84.0000041 magnetization 
 augmentation part       26.8369047 magnetization 

 Broyden mixing:
  rms(total) = 0.48339E-02    rms(broyden)= 0.48335E-02
  rms(prec ) = 0.59042E-02
  weight for this iteration     100.00

 eigenvalues of (default mixing * dielectric matrix)
  average eigenvalue GAMMA=   1.3502
  3.9387  3.1817  2.1649  1.9745  1.2466  1.2466  0.3927  0.3927  0.4036  0.8977
  0.8363  0.8363  0.6952  0.6952

 Free energy of the ion-electron system (eV)
  ---------------------------------------------------
  alpha Z        PSCENC =       433.12062459
  Ewald energy   TEWEN  =     -5309.78256382
  -Hartree energ DENC   =     -1444.84964640
  -exchange      EXHF   =         0.00000000
  -V(xc)+E(xc)   XCENC  =       210.57029582
  PAW double counting   =      6484.70866995    -6504.22478137
  entropy T*S    EENTRO =        -0.00108845
  eigenvalues    EBANDS =      -615.12209579
  atomic energy  EATOM  =      6686.23959825
  Solvation  Ediel_sol  =         0.00000000
  ---------------------------------------------------
  free energy    TOTEN  =       -59.34098721 eV

  energy without entropy =      -59.33989876  energy(sigma->0) =      -59.34044299


--------------------------------------------------------------------------------------------------------




--------------------------------------- Iteration      1(  20)  ---------------------------------------


    POTLOK:  cpu time    0.0135: real time    0.0135
    SETDIJ:  cpu time    0.0030: real time    0.0030
     EDDAV:  cpu time    1.0653: real time    1.0654
       DOS:  cpu time    0.0024: real time    0.0024
    --------------------------------------------
      LOOP:  cpu time    1.0842: real time    1.0999

 eigenvalue-minimisations  :  3040
 total energy-change (2. order) :-0.4658922E-05  (-0.6662813E-06)
 number of electron      84.0000041 magnetization 
 augmentation part       26.8369047 magnetization 

 Free energy of the ion-electron system (eV)
  ---------------------------------------------------
  alpha Z        PSCENC =       433.12062459
  Ewald energy   TEWEN  =     -5309.78256382
  -Hartree energ DENC   =     -1444.85704341
  -exchange      EXHF   =         0.00000000
  -V(xc)+E(xc)   XCENC  =       210.57005302
  PAW double counting   =      6484.74042407    -6504.24544103
  entropy T*S    EENTRO =        -0.00109071
  eigenvalues    EBANDS =      -615.12555283
  atomic energy  EATOM  =      6686.23959825
  Solvation  Ediel_sol  =         0.00000000
  ---------------------------------------------------
  free energy    TOTEN  =       -59.34099187 eV

  energy without entropy =      -59.33990116  energy(sigma->0) =      -59.34044652


--------------------------------------------------------------------------------------------------------




 average (electrostatic) potential at core
  the test charge radii are     1.1137  1.0103  0.7672
  (the norm of the test charge is              1.0000)
       1 -44.3808       2 -44.3808       3 -44.3808       4 -44.3808       5 -45.1043
       6 -45.1043       7 -45.1043       8 -45.1043       9 -28.1400      10 -28.1400
      11 -28.1400      12 -28.1400
 
 
 
 E-fermi :   3.5024     XC(G=0): -10.6129     alpha+bet :-12.3336


 k-point     1 :       0.0000    0.0000    0.0000
  band No.  band energies     occupation 
      1     -35.6457      2.00000
      2     -35.6318      2.00000
      3     -35.6315      2.00000
      4     -35.6186      2.00000
      5     -16.9380      2.00000
      6     -16.8984      2.00000
      7     -16.8723      2.00000
      8     -16.8384      2.00000
      9     -16.7024      2.00000
     10     -16.6878      2.00000
     11     -16.6818      2.00000
     12     -16.6656      2.00000
     13     -16.6196      2.00000
     14     -16.6062      2.00000
     15     -16.5916      2.00000
     16     -16.5755      2.00000
     17      -4.6065      2.00000
     18      -3.2702      2.00000
     19      -2.7577      2.00000
     20      -1.2330      2.00000
     21      -0.4840      2.00000
     22      -0.4664      2.00000
     23       0.1326      2.00000
     24       0.5518      2.00000
     25       1.2327      2.00000
     26       1.4514      2.00000
     27       1.6897      2.00000
     28       1.7357      2.00000
     29       1.9293      2.00000
     30       2.0720      2.00000
     31       2.3359      2.00000
     32       2.4203      2.00000
     33       2.8288      2.00000
     34       2.9030      2.00000
     35       2.9310      2.00000
     36       3.0240      2.00000
     37       3.1096      2.00000
     38       3.3259      2.00000
     39       3.4687      2.00000
     40       3.5468      0.00000
     41       3.6588      0.00000
     42       3.8396      0.00000
     43       3.9044      0.00000
     44       3.9675      0.00000
     45       4.0579      0.00000
     46       4.4865      0.00000
     47       4.8630      0.00000
     48       4.8718      0.00000
     49       5.5259      0.00000
     50       5.6454      0.00000

 k-point     2 :       0.1111    0.0000    0.0000
  band No.  band energies     occupation 
      1     -35.6420      2.00000
      2     -35.6282      2.00000
      3     -35.6279      2.00000
      4     -35.6150      2.00000
      5     -16.9283      2.00000
      6     -16.8910      2.00000
      7     -16.8658      2.00000
      8     -16.8336      2.00000
      9     -16.6977      2.00000
     10     -16.6826      2.00000
     11     -16.6779      2.00000
     12     -16.6662      2.00000
     13     -16.6616      2.00000
     14     -16.6495      2.00000
     15     -16.6334      2.00000
     16     -16.6168      2.00000
     17      -4.4632      2.00000
     18      -3.2826      2.00000
     19      -2.6190      2.00000
     20      -1.2700      2.00000
     21      -0.4590      2.00000
     22      -0.3959      2.00000
     23       0.2563      2.00000
     24       0.7352      2.00000
     25       1.2810      2.00000
     26       1.3842      2.00000
     27       1.6128      2.00000
     28       1.7734      2.00000
     29       1.8081      2.00000
     30       2.1785      2.00000
     31       2.3366      2.00000
     32       2.4210      2.00000
     33       2.8051      2.00000
     34       2.9204      2.00000
     35       2.9462      2.00000
     36       2.9640      2.00000
     37       3.0214      2.00000
     38       3.2761      2.00000
     39       3.3627      2.00000
     40       3.5127      0.14378
     41       3.5785      0.00000
     42       3.8029      0.00000
     43       3.9152      0.00000
     44       3.9798      0.00000
     45       4.2369      0.00000
     46       4.4710      0.00000
     47       4.5763      0.00000
     48       4.8160      0.00000
     49       5.0541      0.00000
     50       5.7504      0.00000

 k-point     3 :       0.2222    0.0000    0.0000
  band No.  band energies     occupation 
      1     -35.6326      2.00000
      2     -35.6192      2.00000
[...]
     15     -17.8706      2.00000
     16     -17.8706      2.00000
     17      -3.8305      2.00000
     18      -3.8305      2.00000
     19      -3.8305      2.00000
     20      -3.8305      2.00000
     21       0.6561      2.00000
     22       0.6561      2.00000
     23       0.6561      2.00000
     24       0.6561      2.00000
     25       1.1965      2.00000
     26       1.1965      2.00000
     27       1.1965      2.00000
     28       1.1965      2.00000
     29       1.4283      2.00000
     30       1.4283      2.00000
     31       1.4283      2.00000
     32       1.4283      2.00000
     33       1.6748      2.00000
     34       1.6748      2.00000
     35       1.6748      2.00000
     36       1.6748      2.00000
     37       2.2535      2.00000
     38       2.2535      2.00000
     39       2.2535      2.00000
     40       2.2535      2.00000
     41       2.6622      1.99988
     42       2.6622      1.99988
     43       2.6622      1.99988
     44       2.6622      1.99988
     45       3.8714      0.00000
     46       3.8714      0.00000
     47       3.8714      0.00000
     48       3.8714      0.00000
     49       4.8774      0.00000
     50       4.8774      0.00000

 k-point    43 :       0.2222    0.5000    0.5000
  band No.  band energies     occupation 
      1     -36.8742      2.00000
      2     -36.8742      2.00000
      3     -36.8742      2.00000
      4     -36.8742      2.00000
      5     -17.9702      2.00000
      6     -17.9702      2.00000
      7     -17.9702      2.00000
      8     -17.9702      2.00000
      9     -17.9503      2.00000
     10     -17.9503      2.00000
     11     -17.9503      2.00000
     12     -17.9503      2.00000
     13     -17.9370      2.00000
     14     -17.9370      2.00000
     15     -17.9370      2.00000
     16     -17.9370      2.00000
     17      -3.6179      2.00000
     18      -3.6179      2.00000
     19      -3.6179      2.00000
     20      -3.6179      2.00000
     21       0.6475      2.00000
     22       0.6475      2.00000
     23       0.6475      2.00000
     24       0.6475      2.00000
     25       1.1724      2.00000
     26       1.1724      2.00000
     27       1.1724      2.00000
     28       1.1724      2.00000
     29       1.4178      2.00000
     30       1.4178      2.00000
     31       1.4178      2.00000
     32       1.4178      2.00000
     33       1.7587      2.00000
     34       1.7587      2.00000
     35       1.7587      2.00000
     36       1.7587      2.00000
     37       2.3183      2.00000
     38       2.3183      2.00000
     39       2.3183      2.00000
     40       2.3183      2.00000
     41       2.5352      2.00000
     42       2.5352      2.00000
     43       2.5352      2.00000
     44       2.5352      2.00000
     45       3.9646      0.00000
     46       3.9646      0.00000
     47       3.9646      0.00000
     48       3.9646      0.00000
     49       4.4129      0.00000
     50       4.4129      0.00000

 k-point    44 :       0.3333    0.5000    0.5000
  band No.  band energies     occupation 
      1     -36.8680      2.00000
      2     -36.8680      2.00000
      3     -36.8680      2.00000
      4     -36.8680      2.00000
      5     -18.0227      2.00000
      6     -18.0227      2.00000
      7     -18.0227      2.00000
      8     -18.0227      2.00000
      9     -17.9610      2.00000
     10     -17.9610      2.00000
     11     -17.9610      2.00000
     12     -17.9610      2.00000
     13     -17.9309      2.00000
     14     -17.9309      2.00000
     15     -17.9309      2.00000
     16     -17.9309      2.00000
     17      -3.3564      2.00000
     18      -3.3564      2.00000
     19      -3.3564      2.00000
     20      -3.3564      2.00000
     21       0.5140      2.00000
     22       0.5140      2.00000
     23       0.5140      2.00000
     24       0.5140      2.00000
     25       1.0902      2.00000
     26       1.0902      2.00000
     27       1.0902      2.00000
     28       1.0902      2.00000
     29       1.4322      2.00000
     30       1.4322      2.00000
     31       1.4322      2.00000
     32       1.4322      2.00000
     33       1.9786      2.00000
     34       1.9786      2.00000
     35       1.9786      2.00000
     36       1.9786      2.00000
     37       2.3898      2.00000
     38       2.3898      2.00000
     39       2.3898      2.00000
     40       2.3898      2.00000
     41       2.5032      2.00000
     42       2.5032      2.00000
     43       2.5032      2.00000
     44       2.5032      2.00000
     45       3.8837      0.00000
     46       3.8837      0.00000
     47       3.8837      0.00000
     48       3.8837      0.00000
     49       4.1899      0.00000
     50       4.1899      0.00000

 k-point    45 :       0.4444    0.5000    0.5000
  band No.  band energies     occupation 
      1     -36.8640      2.00000
      2     -36.8640      2.00000
      3     -36.8640      2.00000
      4     -36.8640      2.00000
      5     -18.0738      2.00000
      6     -18.0738      2.00000
      7     -18.0738      2.00000
      8     -18.0738      2.00000
      9     -17.9554      2.00000
     10     -17.9554      2.00000
     11     -17.9554      2.00000
     12     -17.9554      2.00000
     13     -17.9221      2.00000
     14     -17.9221      2.00000
     15     -17.9221      2.00000
     16     -17.9221      2.00000
     17      -3.1699      2.00000
     18      -3.1699      2.00000
     19      -3.1699      2.00000
     20      -3.1699      2.00000
     21       0.3541      2.00000
     22       0.3541      2.00000
     23       0.3541      2.00000
     24       0.3541      2.00000
     25       1.0692      2.00000
     26       1.0692      2.00000
     27       1.0692      2.00000
     28       1.0692      2.00000
     29       1.4417      2.00000
     30       1.4417      2.00000
     31       1.4417      2.00000
     32       1.4417      2.00000
     33       2.1393      2.00000
     34       2.1393      2.00000
     35       2.1393      2.00000
     36       2.1393      2.00000
     37       2.2670      2.00000
     38       2.2670      2.00000
     39       2.2670      2.00000
     40       2.2670      2.00000
     41       2.8176      0.00000
     42       2.8176      0.00000
     43       2.8176      0.00000
     44       2.8176      0.00000
     45       3.4878      0.00000
     46       3.4878      0.00000
     47       3.4878      0.00000
     48       3.4878      0.00000
     49       4.3572      0.00000
     50       4.3572      0.00000


--------------------------------------------------------------------------------------------------------


 soft charge-density along one line, spin component           1
         0         1         2         3         4         5         6         7         8         9
 total charge-density along one line
 
 pseudopotential strength for first ion, spin component:           1
-18.384  -4.773   0.000   0.000   0.000  -0.000  -0.000  -0.000
 -4.773  -1.869   0.000   0.000   0.000   0.000   0.000   0.000
  0.000   0.000 -19.764  -0.000   0.001   6.841   0.000  -0.000
  0.000   0.000  -0.000 -19.798  -0.000   0.000   6.873   0.000
  0.000   0.000   0.001  -0.000 -19.770  -0.000   0.000   6.847
 -0.000   0.000   6.841   0.000  -0.000   7.720  -0.000   0.000
 -0.000   0.000   0.000   6.873   0.000  -0.000   7.702  -0.000
 -0.000   0.000  -0.000   0.000   6.847   0.000  -0.000   7.717
  0.001   0.000   0.000  -0.000   0.000  -0.000   0.000  -0.000
 -0.000  -0.000   0.000   0.000  -0.000  -0.000  -0.000   0.000
 -0.017  -0.003  -0.000   0.000  -0.000   0.000  -0.000   0.000
 -0.000  -0.000  -0.000   0.000   0.000   0.000  -0.000  -0.000
 -0.003  -0.001  -0.000   0.000   0.000   0.000  -0.000  -0.000
  0.001  -0.000   0.000  -0.000   0.000  -0.000   0.000  -0.000
 -0.000  -0.000   0.000   0.000  -0.000  -0.000  -0.000   0.000
 -0.020  -0.003  -0.000   0.000  -0.000   0.000  -0.000   0.000
 -0.000  -0.000  -0.000   0.000   0.000   0.000  -0.000  -0.000
 -0.003  -0.001  -0.000   0.000   0.000   0.000  -0.000  -0.000
 total augmentation occupancy for first ion, spin component:           1
  2.001   0.005  -0.000   0.000   0.000  -0.000   0.000   0.000   0.000   0.000   0.000   0.000   0.001  -0.001   0.000   0.004
  0.005   0.737  -0.000   0.000   0.000   0.001   0.000  -0.000   0.018   0.000  -0.120   0.000  -0.009  -0.010   0.000   0.072
 -0.000  -0.000   2.004   0.000  -0.000   0.005   0.000  -0.000  -0.000   0.000   0.000  -0.000   0.000   0.000   0.000  -0.000
  0.000   0.000   0.000   2.004   0.000   0.000   0.012   0.000   0.000   0.000   0.000  -0.000   0.000  -0.000  -0.000  -0.000
  0.000   0.000  -0.000   0.000   2.004  -0.000   0.000   0.007  -0.000  -0.000   0.000   0.000  -0.000  -0.000   0.000  -0.000
 -0.000   0.001   0.005   0.000  -0.000   0.040   0.000   0.001  -0.000  -0.000   0.000   0.000  -0.000   0.000   0.000  -0.000
  0.000   0.000   0.000   0.012   0.000   0.000   0.026   0.000   0.000   0.000  -0.000  -0.000   0.000   0.000  -0.000   0.000
  0.000  -0.000  -0.000   0.000   0.007   0.001   0.000   0.040   0.000   0.000   0.000   0.000   0.000  -0.000  -0.000  -0.000
  0.000   0.018  -0.000   0.000  -0.000  -0.000  -0.000   0.000   0.465   0.000  -0.009  -0.000  -0.006  -0.234   0.000   0.005
  0.000   0.000   0.000   0.000  -0.000  -0.000   0.000   0.000   0.000   0.188   0.000   0.006   0.000   0.000  -0.082   0.000
  0.000  -0.120   0.000   0.000   0.000   0.000  -0.000   0.000  -0.009  -0.000   0.150   0.000   0.008   0.005  -0.000  -0.074
  0.000   0.000  -0.000  -0.000   0.000   0.000  -0.000   0.000  -0.000   0.006   0.000   0.184   0.000  -0.000  -0.003  -0.000
  0.001  -0.009   0.000   0.000  -0.000  -0.000   0.000   0.000  -0.006   0.000   0.008   0.000   0.164   0.003   0.000  -0.005
 -0.001  -0.010   0.000  -0.000  -0.000   0.000   0.000  -0.000  -0.234  -0.000   0.005  -0.000   0.003   0.120   0.000  -0.003
  0.000   0.000   0.000  -0.000   0.000   0.000  -0.000  -0.000   0.000  -0.082  -0.000  -0.003   0.000   0.000   0.036  -0.000
  0.004   0.072  -0.000  -0.000  -0.000  -0.000   0.000  -0.000   0.005  -0.000  -0.074  -0.000  -0.005  -0.003   0.000   0.038
  0.000  -0.000   0.000   0.000   0.000  -0.000   0.000   0.000  -0.000  -0.003  -0.000  -0.079   0.000   0.000   0.001   0.000
  0.000   0.007   0.000   0.000  -0.000   0.000   0.000  -0.000   0.003   0.000  -0.005   0.000  -0.077  -0.002   0.000   0.003


------------------------ aborting loop because EDIFF is reached ----------------------------------------


 


 total charge     
 
# of ion       s       p       d       tot
------------------------------------------
    1        2.053   5.865   0.276   8.194
    2        2.053   5.865   0.276   8.194
    3        2.053   5.865   0.276   8.194
    4        2.053   5.865   0.276   8.194
    5        0.470   0.417   6.367   7.254
    6        0.470   0.417   6.367   7.254
    7        0.470   0.417   6.364   7.250
    8        0.470   0.417   6.364   7.250
    9        0.821   1.001   0.000   1.823
   10        0.821   1.001   0.000   1.823
   11        0.821   1.001   0.000   1.823
   12        0.821   1.001   0.000   1.823
--------------------------------------------------
tot         13.378  29.131  26.566  69.075
 
    CHARGE:  cpu time    0.0577: real time    0.0577
    FORLOC:  cpu time    0.0012: real time    0.0012
    FORNL :  cpu time    0.3426: real time    0.3426
    STRESS:  cpu time    0.6511: real time    0.6512
    FORCOR:  cpu time    0.0142: real time    0.0142
    FORHAR:  cpu time    0.0039: real time    0.0039
    MIXING:  cpu time    0.0004: real time    0.0004
    OFIELD:  cpu time    0.0000: real time    0.0000

  FORCE on cell =-STRESS in cart. coord.  units (eV):
  Direction    XX          YY          ZZ          XY          YZ          ZX
  --------------------------------------------------------------------------------------
  Alpha Z   379.48244   379.48244   379.48244
  Ewald   -1836.35407 -1817.72223 -1427.69191    -0.00000     0.00000    -0.00000
  Hartree   482.22142   484.89529   579.11621    -0.00000    -0.00000    -0.00000
  E(xc)    -366.64806  -366.71995  -368.48674    -0.00000     0.00000    -0.00000
  Local     439.51309   415.70761   -37.30375    -0.00000    -0.00000    -0.00000
  n-local  -283.49206  -282.24957  -266.28254     0.35156     0.29229     0.19689
  augment   256.02857   256.45918   247.74035     0.00000    -0.00000    -0.00000
  Kinetic   929.14945   930.19476   893.47741    -1.06060    -0.42846     0.95994
  Fock        0.00000     0.00000     0.00000     0.00000     0.00000     0.00000
  -------------------------------------------------------------------------------------
  Total      -0.09921     0.04753     0.05146     0.00000     0.00000     0.00000
  in kB      -0.75980     0.36403     0.39408     0.00000     0.00000     0.00000
  external pressure =       -0.00 kB  Pullay stress =        0.00 kB


 VOLUME and BASIS-vectors are now :
 -----------------------------------------------------------------------------
  energy-cutoff  :      400.00
  volume of cell :      209.20
      direct lattice vectors                 reciprocal lattice vectors
     3.552208288  0.000000000  0.000000000     0.281515024  0.000000000 -0.000000000
     0.000000000  7.725119519  0.000000000     0.000000000  0.129447835  0.000000000
     0.000000000  0.000000000  7.623569958    -0.000000000  0.000000000  0.131172142

  length of vectors
     3.552208288  7.725119519  7.623569958     0.281515024  0.129447835  0.131172142


 FORCES acting on ions
    electron-ion (+dipol)            ewald-force                    non-local-force                 convergence-correction
 -----------------------------------------------------------------------------------------------
   -.250E+00 0.111E+01 0.364E-06   0.252E+00 -.109E+01 0.301E-13   0.121E-01 -.291E-01 0.136E-19   -.112E-03 0.641E-04 0.103E-11
   0.250E+00 -.111E+01 -.364E-06   -.252E+00 0.109E+01 -.168E-13   -.121E-01 0.291E-01 -.136E-19   0.112E-03 -.641E-04 0.103E-11
   -.250E+00 -.111E+01 -.505E-06   0.252E+00 0.109E+01 0.256E-13   0.121E-01 0.291E-01 0.136E-19   -.112E-03 -.641E-04 0.151E-11
   0.250E+00 0.111E+01 0.505E-06   -.252E+00 -.109E+01 0.303E-13   -.121E-01 -.291E-01 0.136E-19   0.112E-03 0.641E-04 -.343E-12
   0.284E+01 0.181E-08 -.608E-06   -.231E+01 0.722E-14 -.320E-13   -.575E+00 0.000E+00 -.108E-18   -.276E-02 -.173E-12 -.149E-12
   -.284E+01 -.181E-08 0.608E-06   0.231E+01 0.210E-13 -.568E-13   0.575E+00 0.000E+00 0.108E-18   0.276E-02 0.856E-13 -.510E-12
   -.284E+01 0.181E-08 0.608E-06   0.231E+01 -.699E-14 0.426E-13   0.575E+00 0.000E+00 0.000E+00   0.276E-02 0.312E-12 -.200E-12
   0.284E+01 -.181E-08 -.608E-06   -.231E+01 0.711E-14 -.249E-13   -.575E+00 0.000E+00 0.108E-18   -.276E-02 0.620E-12 -.123E-11
   -.388E+00 -.854E+00 0.485E-06   0.180E+00 0.840E+00 0.629E-15   0.101E+00 -.107E-03 0.867E-18   0.134E-03 0.334E-04 0.108E-14
   0.388E+00 0.854E+00 -.485E-06   -.180E+00 -.840E+00 0.286E-14   -.101E+00 0.107E-03 -.867E-18   -.134E-03 -.334E-04 0.201E-12
   -.388E+00 0.854E+00 -.783E-07   0.180E+00 -.840E+00 -.647E-15   0.101E+00 0.107E-03 -.173E-17   0.134E-03 -.334E-04 0.276E-12
   0.388E+00 -.854E+00 0.783E-07   -.180E+00 0.840E+00 -.284E-14   -.101E+00 -.107E-03 0.173E-17   -.134E-03 0.334E-04 -.622E-13
 -----------------------------------------------------------------------------------------------
   0.504E-11 0.556E-12 0.374E-11   0.666E-14 -.143E-13 -.178E-14   0.000E+00 0.000E+00 0.136E-18   -.683E-13 0.154E-11 0.155E-11
 
 
 POSITION                                       TOTAL-FORCE (eV/Angst)
 -----------------------------------------------------------------------------------
      3.55002      0.01297      5.71768         0.013925     -0.010026      0.000000
      0.00219      7.71215      1.90589        -0.013925      0.010026     -0.000000
      3.55002      3.84959      1.90589         0.013925      0.010026      0.000000
      0.00219      3.87553      5.71768        -0.013925     -0.010026     -0.000000
      1.77432      5.79384      3.81178        -0.039766      0.000000     -0.000000
      1.77788      1.93128      3.81178         0.039766      0.000000      0.000000
      1.77788      1.93128      0.00000         0.039766      0.000000      0.000000
      1.77432      5.79384      0.00000        -0.039766      0.000000     -0.000000
      1.81474      5.80786      5.71768        -0.107022     -0.014562     -0.000000
      1.73746      1.91726      1.90589         0.107022      0.014562      0.000000
      1.81474      5.77982      1.90589        -0.107022      0.014562     -0.000000
      1.73746      1.94530      5.71768         0.107022     -0.014562      0.000000
 -----------------------------------------------------------------------------------
    total drift:                                0.000000      0.000000      0.000000


--------------------------------------------------------------------------------------------------------



  FREE ENERGIE OF THE ION-ELECTRON SYSTEM (eV)
  ---------------------------------------------------
  free  energy   TOTEN  =       -60.35052869 eV

  energy  without entropy=      -60.34930530  energy(sigma->0) =      -60.34991699
 
 d Force = 0.3931282E-03[ 0.389E-03, 0.397E-03]  d Energy = 0.3998006E-03-0.667E-05
 d Force = 0.2093930E-02[ 0.204E-02, 0.214E-02]  d Ewald  =-0.3710909E+00 0.373E+00


--------------------------------------------------------------------------------------------------------


    POTLOK:  cpu time    0.0155: real time    0.0155


--------------------------------------------------------------------------------------------------------


 Quasi-Newton relaxation of ions (Broydens 2nd method)
  g(Force)  = 0.523E-03   g(Stress)= 0.119E-04

 retain information from N=  1 steps
 eigenvalues of (default step * inverse Hessian matrix)
  average eigenvalue of G=   4.8387
 eigenvalue spectrum of G is  4.8387


--------------------------------------------------------------------------------------------------------


     LOOP+:  cpu time    8.4892: real time    8.4901
    4ORBIT:  cpu time    0.0000: real time    0.0000
 


 total charge     
 
# of ion       s       p       d       tot
------------------------------------------
    1        2.053   5.865   0.276   8.194
    2        2.053   5.865   0.276   8.194
    3        2.053   5.865   0.276   8.194
    4        2.053   5.865   0.276   8.194
    5        0.470   0.417   6.367   7.254
    6        0.470   0.417   6.367   7.254
    7        0.470   0.417   6.364   7.250
    8        0.470   0.417   6.364   7.250
    9        0.821   1.001   0.000   1.823
   10        0.821   1.001   0.000   1.823
   11        0.821   1.001   0.000   1.823
   12        0.821   1.001   0.000   1.823
--------------------------------------------------
tot         13.378  29.131  26.566  69.075
 

 total amount of memory used by VASP MPI-rank0    46162. kBytes
=======================================================================

   base      :      30000. kBytes
   nonl-proj :       9816. kBytes
   fftplans  :        858. kBytes
   grid      :       1569. kBytes
   one-center:         31. kBytes
   wavefun   :       3888. kBytes
 
  
  
 General timing and accounting informations for this job:
 ========================================================
  
                  Total CPU time used (sec):      167.444
                            User time (sec):      160.092
                          System time (sec):        7.352
                         Elapsed time (sec):      167.893
  
                   Maximum memory used (kb):      185224.
                   Average memory used (kb):           0.
  
                          Minor page faults:        15828
                          Major page faults:         4962
                 Voluntary context switches:           93
