PROCAR new format
# of k-points:   60         # of bands:   35         # of ions:    8

 k-point     1 :    0.00000000 0.00000000 0.00000000     weight = 0.00462963

band     1 # energy  -36.01188338 # occ.  2.00000000
 
ion      s      p      d    tot
    1  0.492  0.000  0.000  0.492
    2  0.492  0.000  0.000  0.492
    3  0.000  0.000  0.000  0.000
    4  0.000  0.000  0.000  0.000
    5  0.000  0.000  0.000  0.000
    6  0.000  0.000  0.000  0.000
    7  0.000  0.000  0.000  0.000
    8  0.000  0.000  0.000  0.000
tot    0.985  0.000  0.000  0.985
 
band     2 # energy  -36.00538968 # occ.  2.00000000
 
ion      s      p      d    tot
    1  0.493  0.000  0.000  0.493
    2  0.493  0.000  0.000  0.493
    3  0.000  0.000  0.000  0.000
    4  0.000  0.000  0.000  0.000
    5  0.000  0.000  0.000  0.000
    6  0.000  0.000  0.000  0.000
    7  0.000  0.000  0.000  0.000
    8  0.000  0.000  0.000  0.000
tot    0.985  0.000  0.000  0.985
 
band     3 # energy  -17.21473009 # occ.  2.00000000
 
ion      s      p      d    tot
    1  0.000  0.475  0.000  0.475
    2  0.000  0.475  0.000  0.475
    3  0.000  0.000  0.000  0.000
    4  0.000  0.000  0.000  0.000
    5  0.000  0.000  0.000  0.000
    6  0.000  0.000  0.000  0.000
    7  0.001  0.000  0.000  0.001
    8  0.001  0.000  0.000  0.001
tot    0.001  0.950  0.000  0.951
 
band     4 # energy  -17.10336399 # occ.  2.00000000
 
ion      s      p      d    tot
    1  0.000  0.481  0.000  0.481
    2  0.000  0.481  0.000  0.481
    3  0.000  0.000  0.000  0.000
    4  0.000  0.000  0.000  0.000
    5  0.000  0.000  0.000  0.000
    6  0.000  0.000  0.000  0.000
    7  0.000  0.000  0.000  0.000
    8  0.000  0.000  0.000  0.000
tot    0.000  0.963  0.000  0.963
 
band     5 # energy  -17.03348085 # occ.  2.00000000
 
ion      s      p      d    tot
    1  0.000  0.477  0.000  0.477
    2  0.000  0.477  0.000  0.477
    3  0.000  0.000  0.000  0.000
    4  0.000  0.000  0.000  0.000
    5  0.000  0.000  0.000  0.000
    6  0.000  0.000  0.000  0.000
    7  0.000  0.000  0.000  0.000
    8  0.000  0.000  0.000  0.000
tot    0.000  0.956  0.000  0.956
 
band     6 # energy  -17.01690499 # occ.  2.00000000
 
ion      s      p      d    tot
    1  0.000  0.478  0.000  0.478
    2  0.000  0.478  0.000  0.478
    3  0.000  0.000  0.000  0.000
    4  0.000  0.000  0.000  0.000
    5  0.000  0.000  0.000  0.000
    6  0.000  0.000  0.000  0.000
    7  0.000  0.000  0.000  0.000
    8  0.000  0.000  0.000  0.000
tot    0.000  0.958  0.000  0.958
 
band     7 # energy  -16.96054376 # occ.  2.00000000
 
ion      s      p      d    tot
    1  0.000  0.482  0.000  0.482
    2  0.000  0.482  0.000  0.482
    3  0.000  0.000  0.000  0.000
    4  0.000  0.000  0.000  0.000
    5  0.000  0.000  0.000  0.000
    6  0.000  0.000  0.000  0.000
    7  0.000  0.000  0.000  0.000
    8  0.000  0.000  0.000  0.000
tot    0.000  0.964  0.000  0.964
 
band     8 # energy  -16.95217788 # occ.  2.00000000
 
ion      s      p      d    tot
    1  0.000  0.482  0.000  0.482
    2  0.000  0.482  0.000  0.482
    3  0.000  0.000  0.000  0.000
    4  0.000  0.000  0.000  0.000
    5  0.000  0.000  0.000  0.000
    6  0.000  0.000  0.000  0.000
    7  0.000  0.000  0.000  0.000
    8  0.000  0.000  0.000  0.000
tot    0.000  0.965  0.000  0.965
 
band     9 # energy   -8.43903966 # occ.  2.00000000
 
ion      s      p      d    tot
    1  0.003  0.000  0.001  0.003
    2  0.003  0.000  0.001  0.003
    3  0.031  0.000  0.009  0.040
    4  0.031  0.000  0.009  0.040
    5  0.081  0.000  0.000  0.081
    6  0.081  0.000  0.000  0.081
    7  0.181  0.000  0.000  0.181
    8  0.181  0.000  0.000  0.181
tot    0.592  0.000  0.019  0.611
 
band    10 # energy   -7.66759125 # occ.  2.00000000
 
ion      s      p      d    tot
    1  0.000  0.005  0.000  0.005
    2  0.000  0.005  0.000  0.005
    3  0.000  0.023  0.000  0.023
    4  0.000  0.023  0.000  0.023
    5  0.084  0.000  0.000  0.084
    6  0.084  0.000  0.000  0.084
    7  0.205  0.000  0.000  0.205
    8  0.205  0.000  0.000  0.205
tot    0.579  0.055  0.000  0.634
 
band    11 # energy   -1.91928600 # occ.  2.00000000
 
ion      s      p      d    tot
    1  0.009  0.000  0.005  0.014
    2  0.009  0.000  0.005  0.014
    3  0.103  0.000  0.020  0.123
    4  0.103  0.000  0.020  0.123
    5  0.000  0.055  0.000  0.055
    6  0.000  0.055  0.000  0.055
    7  0.000  0.075  0.000  0.075
    8  0.000  0.075  0.000  0.075
tot    0.223  0.259  0.050  0.532
 
band    12 # energy   -1.65952031 # occ.  2.00000000
 
ion      s      p      d    tot
    1  0.000  0.000  0.001  0.001
    2  0.000  0.000  0.001  0.001
    3  0.000  0.000  0.067  0.067
    4  0.000  0.000  0.067  0.067
    5  0.000  0.133  0.000  0.133
    6  0.000  0.133  0.000  0.133
    7  0.000  0.142  0.000  0.142
    8  0.000  0.142  0.000  0.142
tot    0.000  0.548  0.136  0.685
 
band    13 # energy   -1.19523369 # occ.  2.00000000
 
ion      s      p      d    tot
    1  0.000  0.001  0.000  0.001
    2  0.000  0.001  0.000  0.001
    3  0.000  0.017  0.000  0.017
    4  0.000  0.017  0.000  0.017
    5  0.000  0.146  0.000  0.146
    6  0.000  0.146  0.000  0.146
    7  0.000  0.161  0.000  0.161
    8  0.000  0.161  0.000  0.161
tot    0.000  0.651  0.000  0.651
 
band    14 # energy    0.22920273 # occ.  2.00000000
 
ion      s      p      d    tot
    1  0.000  0.000  0.021  0.021
    2  0.000  0.000  0.021  0.021
    3  0.000  0.000  0.068  0.068
    4  0.000  0.000  0.068  0.068
    5  0.000  0.057  0.000  0.057
    6  0.000  0.057  0.000  0.057
    7  0.000  0.093  0.000  0.093
    8  0.000  0.093  0.000  0.093
tot    0.000  0.300  0.178  0.478
 
band    15 # energy    0.85946569 # occ.  2.00000000
 
ion      s      p      d    tot
    1  0.000  0.012  0.000  0.012
    2  0.000  0.012  0.000  0.012
    3  0.000  0.018  0.000  0.018
    4  0.000  0.018  0.000  0.018
    5  0.000  0.060  0.000  0.060
    6  0.000  0.060  0.000  0.060
    7  0.000  0.115  0.000  0.115
    8  0.000  0.115  0.000  0.115
tot    0.000  0.411  0.000  0.411
 
band    16 # energy    0.95176970 # occ.  2.00000000
 
ion      s      p      d    tot
    1  0.002  0.000  0.008  0.010
    2  0.002  0.000  0.008  0.010
    3  0.006  0.000  0.210  0.216
    4  0.006  0.000  0.210  0.216
    5  0.108  0.000  0.000  0.108
    6  0.108  0.000  0.000  0.108
    7  0.041  0.000  0.000  0.041
    8  0.041  0.000  0.000  0.041
tot    0.314  0.000  0.435  0.749
 
band    17 # energy    1.41889295 # occ.  2.00000000
 
ion      s      p      d    tot
    1  0.000  0.004  0.000  0.004
    2  0.000  0.004  0.000  0.004
    3  0.000  0.079  0.000  0.079
    4  0.000  0.079  0.000  0.079
    5  0.000  0.085  0.000  0.085
    6  0.000  0.085  0.000  0.085
    7  0.000  0.127  0.000  0.127
    8  0.000  0.127  0.000  0.127
tot    0.000  0.590  0.000  0.590
 
band    18 # energy    2.17044734 # occ.  2.00000000
 
ion      s      p      d    tot
    1  0.003  0.000  0.007  0.009
    2  0.003  0.000  0.007  0.009
    3  0.002  0.000  0.351  0.353
    4  0.002  0.000  0.351  0.353
    5  0.000  0.074  0.000  0.074
    6  0.000  0.074  0.000  0.074
    7  0.000  0.008  0.000  0.008
    8  0.000  0.008  0.000  0.008
tot    0.010  0.164  0.714  0.888
 
band    19 # energy    2.93742047 # occ.  2.00000000
 
ion      s      p      d    tot
    1  0.026  0.000  0.018  0.044
    2  0.026  0.000  0.018  0.044
    3  0.024  0.000  0.163  0.187
    4  0.024  0.000  0.163  0.187
    5  0.001  0.000  0.000  0.001
    6  0.001  0.000  0.000  0.001
    7  0.017  0.000  0.000  0.017
    8  0.017  0.000  0.000  0.017
tot    0.135  0.000  0.362  0.497
 
band    20 # energy    3.66401911 # occ.  2.00000000
 
ion      s      p      d    tot
    1  0.012  0.000  0.031  0.043
    2  0.012  0.000  0.031  0.043
    3  0.014  0.000  0.277  0.291
    4  0.014  0.000  0.277  0.291
    5  0.000  0.000  0.000  0.000
    6  0.000  0.000  0.000  0.000
    7  0.000  0.005  0.000  0.005
    8  0.000  0.005  0.000  0.005
tot    0.051  0.009  0.616  0.676
 
band    21 # energy    3.73673981 # occ.  2.00000000
 
ion      s      p      d    tot
    1  0.000  0.000  0.002  0.002
    2  0.000  0.000  0.002  0.002
    3  0.000  0.000  0.429  0.429
    4  0.000  0.000  0.429  0.429
    5  0.000  0.000  0.000  0.000
    6  0.000  0.000  0.000  0.000
    7  0.000  0.000  0.000  0.000
    8  0.000  0.000  0.000  0.000
tot    0.000  0.000  0.862  0.862
 
band    22 # energy    3.75612121 # occ.  2.00000000
 
ion      s      p      d    tot
    1  0.000  0.001  0.000  0.001
    2  0.000  0.001  0.000  0.001
    3  0.000  0.049  0.000  0.049
    4  0.000  0.049  0.000  0.049
    5  0.179  0.000  0.000  0.179
    6  0.179  0.000  0.000  0.179
    7  0.101  0.000  0.000  0.101
    8  0.101  0.000  0.000  0.101
tot    0.560  0.099  0.000  0.659
 
band    23 # energy    4.16323504 # occ.  2.00000000
 
ion      s      p      d    tot
    1  0.000  0.000  0.012  0.012
    2  0.000  0.000  0.012  0.012
    3  0.000  0.000  0.417  0.417
    4  0.000  0.000  0.417  0.417
    5  0.000  0.000  0.000  0.000
    6  0.000  0.000  0.000  0.000
    7  0.000  0.000  0.000  0.000
    8  0.000  0.000  0.000  0.000
tot    0.000  0.000  0.857  0.857
 
band    24 # energy    4.19867735 # occ.  2.00000000
 
ion      s      p      d    tot
    1  0.000  0.000  0.031  0.031
    2  0.000  0.000  0.031  0.031
    3  0.000  0.000  0.396  0.396
    4  0.000  0.000  0.396  0.396
    5  0.000  0.000  0.000  0.000
    6  0.000  0.000  0.000  0.000
    7  0.000  0.000  0.000  0.000
    8  0.000  0.000  0.000  0.000
tot    0.000  0.000  0.854  0.854
 
band    25 # energy    4.33071250 # occ.  2.00000000
 
ion      s      p      d    tot
    1  0.000  0.000  0.029  0.029
    2  0.000  0.000  0.029  0.029
    3  0.000  0.000  0.414  0.414
    4  0.000  0.000  0.414  0.414
    5  0.000  0.000  0.000  0.000
    6  0.000  0.000  0.000  0.000
    7  0.000  0.000  0.000  0.000
    8  0.000  0.000  0.000  0.000
tot    0.000  0.000  0.885  0.885
 
band    26 # energy    4.56950721 # occ.  2.00000000
 
ion      s      p      d    tot
    1  0.000  0.000  0.068  0.068
    2  0.000  0.000  0.068  0.068
    3  0.076  0.000  0.102  0.177
    4  0.076  0.000  0.102  0.177
    5  0.013  0.000  0.000  0.013
    6  0.013  0.000  0.000  0.013
    7  0.042  0.000  0.000  0.042
    8  0.042  0.000  0.000  0.042
tot    0.261  0.000  0.338  0.599
 
band    27 # energy    4.96491864 # occ.  0.00000000
 
ion      s      p      d    tot
    1  0.000  0.000  0.017  0.017
    2  0.000  0.000  0.017  0.017
    3  0.000  0.000  0.342  0.342
    4  0.000  0.000  0.342  0.342
    5  0.000  0.006  0.000  0.006
    6  0.000  0.006  0.000  0.006
    7  0.000  0.052  0.000  0.052
    8  0.000  0.052  0.000  0.052
tot    0.000  0.118  0.718  0.836
 
band    28 # energy    5.64721177 # occ.  0.00000000
 
ion      s      p      d    tot
    1  0.000  0.000  0.000  0.000
    2  0.000  0.000  0.000  0.000
    3  0.000  0.000  0.424  0.424
    4  0.000  0.000  0.424  0.424
    5  0.000  0.020  0.000  0.020
    6  0.000  0.020  0.000  0.020
    7  0.000  0.031  0.000  0.031
    8  0.000  0.031  0.000  0.031
tot    0.000  0.102  0.848  0.950
 
band    29 # energy    6.07145974 # occ.  0.00000000
 
ion      s      p      d    tot
    1  0.016  0.000  0.059  0.075
    2  0.016  0.000  0.059  0.075
    3  0.000  0.000  0.213  0.213
    4  0.000  0.000  0.213  0.213
    5  0.000  0.000  0.000  0.000
    6  0.000  0.000  0.000  0.000
    7  0.025  0.000  0.000  0.025
    8  0.025  0.000  0.000  0.025
tot    0.082  0.000  0.544  0.626
 
band    30 # energy    7.20121592 # occ.  0.00000000
 
ion      s      p      d    tot
    1  0.000  0.038  0.000  0.038
    2  0.000  0.038  0.000  0.038
    3  0.000  0.001  0.000  0.001
    4  0.000  0.001  0.000  0.001
    5  0.010  0.000  0.000  0.010
    6  0.010  0.000  0.000  0.010
    7  0.016  0.000  0.000  0.016
    8  0.016  0.000  0.000  0.016
tot    0.051  0.078  0.000  0.129
 
band    31 # energy    7.43276640 # occ.  0.00000000
 
ion      s      p      d    tot
    1  0.004  0.000  0.136  0.139
    2  0.004  0.000  0.136  0.139
    3  0.006  0.000  0.196  0.202
    4  0.006  0.000  0.196  0.202
    5  0.000  0.002  0.000  0.002
    6  0.000  0.002  0.000  0.002
    7  0.000  0.026  0.000  0.026
    8  0.000  0.026  0.000  0.026
tot    0.019  0.056  0.663  0.738
 
band    32 # energy    8.05272652 # occ.  0.00000000
 
ion      s      p      d    tot
    1  0.000  0.043  0.000  0.043
    2  0.000  0.043  0.000  0.043
    3  0.000  0.102  0.000  0.102
    4  0.000  0.102  0.000  0.102
    5  0.000  0.000  0.000  0.000
    6  0.000  0.000  0.000  0.000
    7  0.000  0.000  0.000  0.000
    8  0.000  0.000  0.000  0.000
tot    0.000  0.290  0.000  0.290
 
band    33 # energy    8.05982792 # occ.  0.00000000
 
ion      s      p      d    tot
    1  0.014  0.000  0.080  0.093
    2  0.014  0.000  0.080  0.093
    3  0.009  0.000  0.208  0.217
    4  0.009  0.000  0.208  0.217
    5  0.034  0.000  0.000  0.034
    6  0.034  0.000  0.000  0.034
    7  0.004  0.000  0.000  0.004
    8  0.004  0.000  0.000  0.004
tot    0.121  0.000  0.576  0.697
 
band    34 # energy    8.37727422 # occ.  0.00000000
 
ion      s      p      d    tot
    1  0.000  0.000  0.287  0.287
    2  0.000  0.000  0.287  0.287
    3  0.000  0.000  0.048  0.048
    4  0.000  0.000  0.048  0.048
    5  0.000  0.000  0.000  0.000
    6  0.000  0.000  0.000  0.000
    7  0.000  0.000  0.000  0.000
    8  0.000  0.000  0.000  0.000
tot    0.000  0.000  0.670  0.670
 
band    35 # energy    8.90289057 # occ.  0.00000000
 
ion      s      p      d    tot
    1  0.000  0.000  0.341  0.341
    2  0.000  0.000  0.341  0.341
    3  0.000  0.000  0.000  0.000
    4  0.000  0.000  0.000  0.000
    5  0.000  0.006  0.000  0.006
    6  0.000  0.006  0.000  0.006
    7  0.000  0.003  0.000  0.003
    8  0.000  0.003  0.000  0.003
tot    0.000  0.020  0.682  0.702
 

 k-point     2 :    0.11111111 0.00000000 0.00000000     weight = 0.00925926

band     1 # energy  -36.01099714 # occ.  2.00000000
 
ion      s      p      d    tot
    1  0.492  0.000  0.000  0.492
    2  0.492  0.000  0.000  0.492
    3  0.000  0.000  0.000  0.000
    4  0.000  0.000  0.000  0.000
    5  0.000  0.000  0.000  0.000
    6  0.000  0.000  0.000  0.000
    7  0.000  0.000  0.000  0.000
    8  0.000  0.000  0.000  0.000
tot    0.985  0.000  0.000  0.985
 
band     2 # energy  -36.00448573 # occ.  2.00000000
 
ion      s      p      d    tot
    1  0.493  0.000  0.000  0.493
    2  0.493  0.000  0.000  0.493
    3  0.000  0.000  0.000  0.000
    4  0.000  0.000  0.000  0.000
    5  0.000  0.000  0.000  0.000
    6  0.000  0.000  0.000  0.000
    7  0.000  0.000  0.000  0.000
    8  0.000  0.000  0.000  0.000
tot    0.985  0.000  0.000  0.986
 
band     3 # energy  -17.21303980 # occ.  2.00000000
 
ion      s      p      d    tot
    1  0.000  0.475  0.000  0.475
    2  0.000  0.475  0.000  0.475
    3  0.000  0.000  0.000  0.000
    4  0.000  0.000  0.000  0.000
    5  0.000  0.000  0.000  0.000
    6  0.000  0.000  0.000  0.000
    7  0.001  0.000  0.000  0.001
    8  0.001  0.000  0.000  0.001
tot    0.001  0.950  0.000  0.952
 
band     4 # energy  -17.10227251 # occ.  2.00000000
 
ion      s      p      d    tot
    1  0.000  0.481  0.000  0.481
    2  0.000  0.481  0.000  0.481
    3  0.000  0.000  0.000  0.000
    4  0.000  0.000  0.000  0.000
    5  0.000  0.000  0.000  0.000
    6  0.000  0.000  0.000  0.000
    7  0.000  0.000  0.000  0.000
    8  0.000  0.000  0.000  0.000
tot    0.000  0.963  0.000  0.963
 
band     5 # energy  -17.03236011 # occ.  2.00000000
 
ion      s      p      d    tot
    1  0.000  0.477  0.000  0.477
    2  0.000  0.477  0.000  0.477
    3  0.000  0.000  0.000  0.000
    4  0.000  0.000  0.000  0.000
    5  0.000  0.000  0.000  0.000
    6  0.000  0.000  0.000  0.000
    7  0.000  0.000  0.000  0.000
    8  0.000  0.000  0.000  0.000
tot    0.000  0.956  0.000  0.956
 
band     6 # energy  -17.01590486 # occ.  2.00000000
 
ion      s      p      d    tot
    1  0.000  0.479  0.000  0.479
    2  0.000  0.479  0.000  0.479
    3  0.000  0.000  0.000  0.000
    4  0.000  0.000  0.000  0.000
    5  0.000  0.000  0.000  0.000
    6  0.000  0.000  0.000  0.000
    7  0.000  0.000  0.000  0.000
    8  0.000  0.000  0.000  0.000
tot    0.000  0.958  0.000  0.958
 
band     7 # energy  -16.97442656 # occ.  2.00000000
 
ion      s      p      d    tot
    1  0.000  0.481  0.000  0.481
    2  0.000  0.481  0.000  0.481
    3  0.000  0.000  0.000  0.000
    4  0.000  0.000  0.000  0.000
    5  0.000  0.000  0.000  0.000
    6  0.000  0.000  0.000  0.000
    7  0.000  0.000  0.000  0.000
    8  0.000  0.000  0.000  0.000
tot    0.000  0.963  0.000  0.963
 
band     8 # energy  -16.96550872 # occ.  2.00000000
 
ion      s      p      d    tot
    1  0.000  0.482  0.000  0.482
    2  0.000  0.482  0.000  0.482
    3  0.000  0.000  0.000  0.000
    4  0.000  0.000  0.000  0.000
    5  0.000  0.000  0.000  0.000
    6  0.000  0.000  0.000  0.000
    7  0.000  0.000  0.000  0.000
    8  0.000  0.000  0.000  0.000
tot    0.000  0.964  0.000  0.964
 
band     9 # energy   -8.34501722 # occ.  2.00000000
 
ion      s      p      d    tot
    1  0.003  0.000  0.001  0.003
    2  0.003  0.000  0.001  0.003
    3  0.030  0.001  0.009  0.039
    4  0.030  0.001  0.009  0.039
    5  0.077  0.003  0.000  0.080
    6  0.077  0.003  0.000  0.080
    7  0.183  0.001  0.000  0.183
    8  0.183  0.001  0.000  0.183
tot    0.585  0.008  0.019  0.612
 
band    10 # energy   -7.60089780 # occ.  2.00000000
 
ion      s      p      d    tot
    1  0.000  0.005  0.000  0.005
    2  0.000  0.005  0.000  0.005
    3  0.000  0.021  0.001  0.022
    4  0.000  0.021  0.001  0.022
    5  0.079  0.004  0.000  0.083
    6  0.079  0.004  0.000  0.083
    7  0.207  0.000  0.000  0.207
    8  0.207  0.000  0.000  0.207
tot    0.572  0.060  0.002  0.634
 
band    11 # energy   -1.99796827 # occ.  2.00000000
 
ion      s      p      d    tot
    1  0.000  0.000  0.001  0.001
    2  0.000  0.000  0.001  0.001
    3  0.000  0.007  0.054  0.061
    4  0.000  0.007  0.054  0.061
    5  0.028  0.111  0.000  0.140
    6  0.028  0.111  0.000  0.140
    7  0.007  0.130  0.000  0.137
    8  0.007  0.130  0.000  0.137
tot    0.071  0.498  0.110  0.679
 
band    12 # energy   -1.89709968 # occ.  2.00000000
 
ion      s      p      d    tot
    1  0.000  0.001  0.001  0.002
    2  0.000  0.001  0.001  0.002
    3  0.010  0.014  0.020  0.043
    4  0.010  0.014  0.020  0.043
    5  0.042  0.103  0.000  0.145
    6  0.042  0.103  0.000  0.145
    7  0.019  0.124  0.000  0.143
    8  0.019  0.124  0.000  0.143
tot    0.142  0.483  0.041  0.667
 
band    13 # energy   -1.79248526 # occ.  2.00000000
 
ion      s      p      d    tot
    1  0.009  0.000  0.005  0.014
    2  0.009  0.000  0.005  0.014
    3  0.100  0.002  0.021  0.123
    4  0.100  0.002  0.021  0.123
    5  0.000  0.055  0.000  0.055
    6  0.000  0.055  0.000  0.055
    7  0.000  0.075  0.000  0.075
    8  0.000  0.075  0.000  0.075
tot    0.218  0.264  0.052  0.533
 
band    14 # energy    0.33665013 # occ.  2.00000000
 
ion      s      p      d    tot
    1  0.000  0.000  0.021  0.021
    2  0.000  0.000  0.021  0.021
    3  0.000  0.000  0.069  0.069
    4  0.000  0.000  0.069  0.069
    5  0.000  0.056  0.000  0.056
    6  0.000  0.056  0.000  0.056
    7  0.000  0.093  0.000  0.093
    8  0.000  0.093  0.000  0.093
tot    0.000  0.299  0.180  0.479
 
band    15 # energy    0.95473750 # occ.  2.00000000
 
ion      s      p      d    tot
    1  0.000  0.012  0.000  0.013
    2  0.000  0.012  0.000  0.013
    3  0.000  0.017  0.002  0.019
    4  0.000  0.017  0.002  0.019
    5  0.000  0.059  0.000  0.059
    6  0.000  0.059  0.000  0.059
    7  0.000  0.116  0.000  0.116
    8  0.000  0.116  0.000  0.116
tot    0.000  0.408  0.004  0.412
 
band    16 # energy    1.44420848 # occ.  2.00000000
 
ion      s      p      d    tot
    1  0.000  0.004  0.000  0.004
    2  0.000  0.004  0.000  0.004
    3  0.000  0.072  0.019  0.091
    4  0.000  0.072  0.019  0.091
    5  0.000  0.077  0.000  0.077
    6  0.000  0.077  0.000  0.077
    7  0.000  0.126  0.000  0.126
    8  0.000  0.126  0.000  0.126
tot    0.000  0.556  0.038  0.594
 
band    17 # energy    1.59814175 # occ.  2.00000000
 
ion      s      p      d    tot
    1  0.003  0.000  0.007  0.010
    2  0.003  0.000  0.007  0.010
    3  0.000  0.001  0.212  0.214
    4  0.000  0.001  0.212  0.214
    5  0.067  0.033  0.000  0.100
    6  0.067  0.033  0.000  0.100
    7  0.018  0.027  0.000  0.044
    8  0.018  0.027  0.000  0.044
tot    0.178  0.121  0.438  0.736
 
band    18 # energy    2.12330444 # occ.  2.00000000
 
ion      s      p      d    tot
    1  0.003  0.000  0.007  0.010
    2  0.003  0.000  0.007  0.010
    3  0.003  0.002  0.336  0.342
    4  0.003  0.002  0.336  0.342
    5  0.000  0.075  0.000  0.075
    6  0.000  0.075  0.000  0.075
    7  0.000  0.011  0.000  0.011
    8  0.000  0.011  0.000  0.011
tot    0.013  0.177  0.686  0.875
 
band    19 # energy    3.07444975 # occ.  2.00000000
 
ion      s      p      d    tot
    1  0.023  0.002  0.017  0.041
    2  0.023  0.002  0.017  0.041
    3  0.020  0.000  0.176  0.197
    4  0.020  0.000  0.176  0.197
    5  0.001  0.001  0.000  0.001
    6  0.001  0.001  0.000  0.001
    7  0.015  0.002  0.000  0.017
    8  0.015  0.002  0.000  0.017
tot    0.116  0.010  0.386  0.513
 
band    20 # energy    3.73513298 # occ.  2.00000000
 
ion      s      p      d    tot
    1  0.010  0.002  0.028  0.040
    2  0.010  0.002  0.028  0.040
    3  0.015  0.000  0.281  0.297
    4  0.015  0.000  0.281  0.297
    5  0.000  0.000  0.000  0.000
    6  0.000  0.000  0.000  0.000
    7  0.000  0.004  0.000  0.004
    8  0.000  0.004  0.000  0.004
tot    0.051  0.013  0.619  0.683
 
band    21 # energy    3.75619811 # occ.  2.00000000
 
ion      s      p      d    tot
    1  0.000  0.000  0.003  0.003
    2  0.000  0.000  0.003  0.003
    3  0.000  0.012  0.394  0.406
    4  0.000  0.012  0.394  0.406
    5  0.000  0.015  0.000  0.015
    6  0.000  0.015  0.000  0.015
    7  0.000  0.000  0.000  0.000
    8  0.000  0.000  0.000  0.000
tot    0.000  0.055  0.793  0.848
 
band    22 # energy    4.06800053 # occ.  2.00000000
 
ion      s      p      d    tot
    1  0.000  0.001  0.000  0.001
    2  0.000  0.001  0.000  0.001
    3  0.000  0.037  0.082  0.119
    4  0.000  0.037  0.082  0.119
    5  0.135  0.011  0.000  0.146
    6  0.135  0.011  0.000  0.146
    7  0.084  0.003  0.000  0.087
    8  0.084  0.003  0.000  0.087
tot    0.438  0.104  0.163  0.705
 
band    23 # energy    4.17130520 # occ.  2.00000000
 
ion      s      p      d    tot
    1  0.000  0.000  0.031  0.032
    2  0.000  0.000  0.031  0.032
    3  0.000  0.001  0.382  0.383
    4  0.000  0.001  0.382  0.383
    5  0.000  0.003  0.000  0.003
    6  0.000  0.003  0.000  0.003
    7  0.000  0.000  0.000  0.000
    8  0.000  0.000  0.000  0.000
tot    0.000  0.011  0.826  0.836
 
band    24 # energy    4.18638214 # occ.  2.00000000
 
ion      s      p      d    tot
    1  0.000  0.000  0.011  0.011
    2  0.000  0.000  0.011  0.011
    3  0.000  0.000  0.420  0.420
    4  0.000  0.000  0.420  0.420
    5  0.000  0.000  0.000  0.000
    6  0.000  0.000  0.000  0.000
    7  0.000  0.000  0.000  0.000
    8  0.000  0.000  0.000  0.000
tot    0.000  0.000  0.862  0.862
 
band    25 # energy    4.32969051 # occ.  2.00000000
 
ion      s      p      d    tot
    1  0.000  0.001  0.026  0.027
    2  0.000  0.001  0.026  0.027
    3  0.000  0.000  0.414  0.414
    4  0.000  0.000  0.414  0.414
    5  0.000  0.000  0.000  0.000
    6  0.000  0.000  0.000  0.000
    7  0.000  0.000  0.000  0.000
    8  0.000  0.000  0.000  0.000
tot    0.000  0.002  0.880  0.882
 
band    26 # energy    4.78563699 # occ.  0.51047754
 
ion      s      p      d    tot
    1  0.000  0.000  0.076  0.076
    2  0.000  0.000  0.076  0.076
    3  0.073  0.003  0.075  0.151
    4  0.073  0.003  0.075  0.151
    5  0.012  0.006  0.000  0.018
    6  0.012  0.006  0.000  0.018
    7  0.039  0.006  0.000  0.045
    8  0.039  0.006  0.000  0.045
tot    0.250  0.029  0.302  0.580
 
band    27 # energy    4.81467764 # occ.  0.00000189
 
ion      s      p      d    tot
    1  0.000  0.000  0.019  0.019
    2  0.000  0.000  0.019  0.019
    3  0.000  0.000  0.320  0.320
    4  0.000  0.000  0.320  0.320
    5  0.000  0.009  0.000  0.009
    6  0.000  0.009  0.000  0.009
    7  0.000  0.056  0.000  0.056
    8  0.000  0.056  0.000  0.056
tot    0.000  0.130  0.677  0.808
 
band    28 # energy    5.81988274 # occ.  0.00000000
 
ion      s      p      d    tot
    1  0.000  0.000  0.000  0.000
    2  0.000  0.000  0.000  0.000
    3  0.000  0.004  0.352  0.357
    4  0.000  0.004  0.352  0.357
    5  0.016  0.032  0.000  0.049
    6  0.016  0.032  0.000  0.049
    7  0.005  0.038  0.000  0.043
    8  0.005  0.038  0.000  0.043
tot    0.043  0.150  0.705  0.898
 
band    29 # energy    6.13349585 # occ.  0.00000000
 
ion      s      p      d    tot
    1  0.017  0.000  0.053  0.070
    2  0.017  0.000  0.053  0.070
    3  0.000  0.000  0.215  0.216
    4  0.000  0.000  0.215  0.216
    5  0.000  0.000  0.000  0.000
    6  0.000  0.000  0.000  0.000
    7  0.028  0.002  0.000  0.030
    8  0.028  0.002  0.000  0.030
tot    0.090  0.005  0.537  0.632
 
band    30 # energy    7.02831058 # occ.  0.00000000
 
ion      s      p      d    tot
    1  0.001  0.004  0.074  0.079
    2  0.001  0.004  0.074  0.079
    3  0.018  0.022  0.188  0.228
    4  0.018  0.022  0.188  0.228
    5  0.000  0.005  0.000  0.005
    6  0.000  0.005  0.000  0.005
    7  0.000  0.032  0.000  0.032
    8  0.000  0.032  0.000  0.032
tot    0.038  0.126  0.524  0.689
 
band    31 # energy    7.16429329 # occ.  0.00000000
 
ion      s      p      d    tot
    1  0.000  0.032  0.031  0.063
    2  0.000  0.032  0.031  0.063
    3  0.000  0.001  0.001  0.002
    4  0.000  0.001  0.001  0.002
    5  0.010  0.000  0.000  0.010
    6  0.010  0.000  0.000  0.010
    7  0.013  0.002  0.000  0.015
    8  0.013  0.002  0.000  0.015
tot    0.047  0.070  0.062  0.179
 
band    32 # energy    7.80504317 # occ.  0.00000000
 
ion      s      p      d    tot
    1  0.000  0.032  0.063  0.095
    2  0.000  0.032  0.063  0.095
    3  0.000  0.091  0.005  0.095
    4  0.000  0.091  0.005  0.095
    5  0.000  0.000  0.000  0.000
    6  0.000  0.000  0.000  0.000
    7  0.000  0.000  0.000  0.000
    8  0.000  0.000  0.000  0.000
tot    0.000  0.245  0.136  0.381
 
band    33 # energy    7.89904826 # occ.  0.00000000
 
ion      s      p      d    tot
    1  0.015  0.000  0.073  0.088
    2  0.015  0.000  0.073  0.088
    3  0.006  0.004  0.201  0.211
    4  0.006  0.004  0.201  0.211
    5  0.029  0.008  0.000  0.037
    6  0.029  0.008  0.000  0.037
    7  0.005  0.000  0.000  0.005
    8  0.005  0.000  0.000  0.005
tot    0.109  0.023  0.548  0.680
 
band    34 # energy    7.92316099 # occ.  0.00000000
 
ion      s      p      d    tot
    1  0.000  0.000  0.041  0.041
    2  0.000  0.000  0.041  0.041
    3  0.000  0.027  0.057  0.084
    4  0.000  0.027  0.057  0.084
    5  0.000  0.075  0.000  0.075
    6  0.000  0.075  0.000  0.075
    7  0.000  0.080  0.000  0.080
    8  0.000  0.080  0.000  0.080
tot    0.000  0.363  0.195  0.558
 
band    35 # energy    8.35805244 # occ.  0.00000000
 
ion      s      p      d    tot
    1  0.000  0.000  0.289  0.289
    2  0.000  0.000  0.289  0.289
    3  0.000  0.000  0.043  0.043
    4  0.000  0.000  0.043  0.043
    5  0.000  0.000  0.000  0.000
    6  0.000  0.000  0.000  0.000
    7  0.000  0.000  0.000  0.000
    8  0.000  0.000  0.000  0.000
tot    0.000  0.000  0.663  0.663
 

 k-point     3 :    0.22222222 0.00000000 0.00000000     weight = 0.00925926

band     1 # energy  -36.00871466 # occ.  2.00000000
 
ion      s      p      d    tot
    1  0.493  0.000  0.000  0.493
    2  0.493  0.000  0.000  0.493
    3  0.000  0.000  0.000  0.000
    4  0.000  0.000  0.000  0.000
    5  0.000  0.000  0.000  0.000
    6  0.000  0.000  0.000  0.000
    7  0.000  0.000  0.000  0.000
    8  0.000  0.000  0.000  0.000
tot    0.985  0.000  0.000  0.985
 
band     2 # energy  -36.00220980 # occ.  2.00000000
 
ion      s      p      d    tot
    1  0.493  0.000  0.000  0.493
    2  0.493  0.000  0.000  0.493
    3  0.000  0.000  0.000  0.000
    4  0.000  0.000  0.000  0.000
    5  0.000  0.000  0.000  0.000
    6  0.000  0.000  0.000  0.000
    7  0.000  0.000  0.000  0.000
    8  0.000  0.000  0.000  0.000
tot    0.986  0.000  0.000  0.986
 
band     3 # energy  -17.20877951 # occ.  2.00000000
 
ion      s      p      d    tot
    1  0.000  0.475  0.000  0.475
    2  0.000  0.475  0.000  0.475
    3  0.000  0.000  0.000  0.000
    4  0.000  0.000  0.000  0.000
    5  0.000  0.000  0.000  0.000
    6  0.000  0.000  0.000  0.000
    7  0.001  0.000  0.000  0.001
    8  0.001  0.000  0.000  0.001
tot    0.001  0.951  0.000  0.952
 
band     4 # energy  -17.09953576 # occ.  2.00000000
 
ion      s      p      d    tot
    1  0.000  0.482  0.000  0.482
    2  0.000  0.482  0.000  0.482
    3  0.000  0.000  0.000  0.000
    4  0.000  0.000  0.000  0.000
    5  0.000  0.000  0.000  0.000
    6  0.000  0.000  0.000  0.000
    7  0.000  0.000  0.000  0.000
    8  0.000  0.000  0.000  0.000
tot    0.000  0.963  0.000  0.963
 
band     5 # energy  -17.02953715 # occ.  2.00000000
 
ion      s      p      d    tot
    1  0.000  0.478  0.000  0.478
    2  0.000  0.478  0.000  0.478
    3  0.000  0.000  0.000  0.000
    4  0.000  0.000  0.000  0.000
    5  0.000  0.000  0.000  0.000
    6  0.000  0.000  0.000  0.000
    7  0.000  0.000  0.000  0.000
    8  0.000  0.000  0.000  0.000
tot    0.000  0.956  0.000  0.956
 