PROCAR new format
# of k-points:   45         # of bands:   50         # of ions:   12

 k-point     1 :    0.00000000 0.00000000 0.00000000     weight = 0.00694444

band     1 # energy  -36.88883152 # occ.  2.00000000
 
ion      s      p      d    tot
    1  0.246  0.000  0.000  0.246
    2  0.246  0.000  0.000  0.246
    3  0.246  0.000  0.000  0.246
    4  0.246  0.000  0.000  0.246
    5  0.000  0.000  0.000  0.000
    6  0.000  0.000  0.000  0.000
    7  0.000  0.000  0.000  0.000
    8  0.000  0.000  0.000  0.000
    9  0.000  0.000  0.000  0.000
   10  0.000  0.000  0.000  0.000
   11  0.000  0.000  0.000  0.000
   12  0.000  0.000  0.000  0.000
tot    0.984  0.000  0.000  0.984
 
band     2 # energy  -36.88174519 # occ.  2.00000000
 
ion      s      p      d    tot
    1  0.246  0.000  0.000  0.246
    2  0.246  0.000  0.000  0.246
    3  0.246  0.000  0.000  0.246
    4  0.246  0.000  0.000  0.246
    5  0.000  0.000  0.000  0.000
    6  0.000  0.000  0.000  0.000
    7  0.000  0.000  0.000  0.000
    8  0.000  0.000  0.000  0.000
    9  0.000  0.000  0.000  0.000
   10  0.000  0.000  0.000  0.000
   11  0.000  0.000  0.000  0.000
   12  0.000  0.000  0.000  0.000
tot    0.985  0.000  0.000  0.985
 
band     3 # energy  -36.88152553 # occ.  2.00000000
 
ion      s      p      d    tot
    1  0.246  0.000  0.000  0.246
    2  0.246  0.000  0.000  0.246
    3  0.246  0.000  0.000  0.246
    4  0.246  0.000  0.000  0.246
    5  0.000  0.000  0.000  0.000
    6  0.000  0.000  0.000  0.000
    7  0.000  0.000  0.000  0.000
    8  0.000  0.000  0.000  0.000
    9  0.000  0.000  0.000  0.000
   10  0.000  0.000  0.000  0.000
   11  0.000  0.000  0.000  0.000
   12  0.000  0.000  0.000  0.000
tot    0.985  0.000  0.000  0.985
 
band     4 # energy  -36.87481722 # occ.  2.00000000
 
ion      s      p      d    tot
    1  0.246  0.000  0.000  0.246
    2  0.246  0.000  0.000  0.246
    3  0.246  0.000  0.000  0.246
    4  0.246  0.000  0.000  0.246
    5  0.000  0.000  0.000  0.000
    6  0.000  0.000  0.000  0.000
    7  0.000  0.000  0.000  0.000
    8  0.000  0.000  0.000  0.000
    9  0.000  0.000  0.000  0.000
   10  0.000  0.000  0.000  0.000
   11  0.000  0.000  0.000  0.000
   12  0.000  0.000  0.000  0.000
tot    0.985  0.000  0.000  0.985
 
band     5 # energy  -18.04364662 # occ.  2.00000000
 
ion      s      p      d    tot
    1  0.000  0.238  0.000  0.238
    2  0.000  0.238  0.000  0.238
    3  0.000  0.238  0.000  0.238
    4  0.000  0.238  0.000  0.238
    5  0.000  0.000  0.000  0.000
    6  0.000  0.000  0.000  0.000
    7  0.000  0.000  0.000  0.000
    8  0.000  0.000  0.000  0.000
    9  0.000  0.000  0.000  0.000
   10  0.000  0.000  0.000  0.000
   11  0.000  0.000  0.000  0.000
   12  0.000  0.000  0.000  0.000
tot    0.001  0.951  0.000  0.952
 
band     6 # energy  -18.03665351 # occ.  2.00000000
 
ion      s      p      d    tot
    1  0.000  0.235  0.000  0.235
    2  0.000  0.235  0.000  0.235
    3  0.000  0.235  0.000  0.235
    4  0.000  0.235  0.000  0.235
    5  0.000  0.000  0.000  0.000
    6  0.000  0.000  0.000  0.000
    7  0.000  0.000  0.000  0.000
    8  0.000  0.000  0.000  0.000
    9  0.001  0.000  0.000  0.001
   10  0.001  0.000  0.000  0.001
   11  0.001  0.000  0.000  0.001
   12  0.001  0.000  0.000  0.001
tot    0.005  0.941  0.000  0.946
 
band     7 # energy  -18.02614876 # occ.  2.00000000
 
ion      s      p      d    tot
    1  0.000  0.238  0.000  0.238
    2  0.000  0.238  0.000  0.238
    3  0.000  0.238  0.000  0.238
    4  0.000  0.238  0.000  0.238
    5  0.000  0.000  0.000  0.000
    6  0.000  0.000  0.000  0.000
    7  0.000  0.000  0.000  0.000
    8  0.000  0.000  0.000  0.000
    9  0.000  0.000  0.000  0.000
   10  0.000  0.000  0.000  0.000
   11  0.000  0.000  0.000  0.000
   12  0.000  0.000  0.000  0.000
tot    0.000  0.954  0.000  0.954
 
band     8 # energy  -18.01613769 # occ.  2.00000000
 
ion      s      p      d    tot
    1  0.000  0.236  0.000  0.236
    2  0.000  0.236  0.000  0.236
    3  0.000  0.236  0.000  0.236
    4  0.000  0.236  0.000  0.236
    5  0.000  0.000  0.000  0.000
    6  0.000  0.000  0.000  0.000
    7  0.000  0.000  0.000  0.000
    8  0.000  0.000  0.000  0.000
    9  0.001  0.000  0.000  0.001
   10  0.001  0.000  0.000  0.001
   11  0.001  0.000  0.000  0.001
   12  0.001  0.000  0.000  0.001
tot    0.003  0.945  0.000  0.948
 
band     9 # energy  -17.92984450 # occ.  2.00000000
 
ion      s      p      d    tot
    1  0.000  0.241  0.000  0.241
    2  0.000  0.241  0.000  0.241
    3  0.000  0.241  0.000  0.241
    4  0.000  0.241  0.000  0.241
    5  0.000  0.000  0.000  0.000
    6  0.000  0.000  0.000  0.000
    7  0.000  0.000  0.000  0.000
    8  0.000  0.000  0.000  0.000
    9  0.000  0.000  0.000  0.000
   10  0.000  0.000  0.000  0.000
   11  0.000  0.000  0.000  0.000
   12  0.000  0.000  0.000  0.000
tot    0.000  0.962  0.000  0.962
 
band    10 # energy  -17.92042025 # occ.  2.00000000
 
ion      s      p      d    tot
    1  0.000  0.241  0.000  0.241
    2  0.000  0.241  0.000  0.241
    3  0.000  0.241  0.000  0.241
    4  0.000  0.241  0.000  0.241
    5  0.000  0.000  0.000  0.000
    6  0.000  0.000  0.000  0.000
    7  0.000  0.000  0.000  0.000
    8  0.000  0.000  0.000  0.000
    9  0.000  0.000  0.000  0.000
   10  0.000  0.000  0.000  0.000
   11  0.000  0.000  0.000  0.000
   12  0.000  0.000  0.000  0.000
tot    0.000  0.963  0.000  0.963
 
band    11 # energy  -17.90184681 # occ.  2.00000000
 
ion      s      p      d    tot
    1  0.000  0.239  0.000  0.239
    2  0.000  0.239  0.000  0.239
    3  0.000  0.239  0.000  0.239
    4  0.000  0.239  0.000  0.239
    5  0.000  0.000  0.000  0.000
    6  0.000  0.000  0.000  0.000
    7  0.000  0.000  0.000  0.000
    8  0.000  0.000  0.000  0.000
    9  0.000  0.000  0.000  0.000
   10  0.000  0.000  0.000  0.000
   11  0.000  0.000  0.000  0.000
   12  0.000  0.000  0.000  0.000
tot    0.000  0.959  0.000  0.959
 
band    12 # energy  -17.89263164 # occ.  2.00000000
 
ion      s      p      d    tot
    1  0.000  0.240  0.000  0.240
    2  0.000  0.240  0.000  0.240
    3  0.000  0.240  0.000  0.240
    4  0.000  0.240  0.000  0.240
    5  0.000  0.000  0.000  0.000
    6  0.000  0.000  0.000  0.000
    7  0.000  0.000  0.000  0.000
    8  0.000  0.000  0.000  0.000
    9  0.000  0.000  0.000  0.000
   10  0.000  0.000  0.000  0.000
   11  0.000  0.000  0.000  0.000
   12  0.000  0.000  0.000  0.000
tot    0.000  0.960  0.000  0.960
 
band    13 # energy  -17.85430711 # occ.  2.00000000
 
ion      s      p      d    tot
    1  0.000  0.241  0.000  0.241
    2  0.000  0.241  0.000  0.241
    3  0.000  0.241  0.000  0.241
    4  0.000  0.241  0.000  0.241
    5  0.000  0.000  0.000  0.000
    6  0.000  0.000  0.000  0.000
    7  0.000  0.000  0.000  0.000
    8  0.000  0.000  0.000  0.000
    9  0.000  0.000  0.000  0.000
   10  0.000  0.000  0.000  0.000
   11  0.000  0.000  0.000  0.000
   12  0.000  0.000  0.000  0.000
tot    0.000  0.964  0.000  0.964
 
band    14 # energy  -17.84605964 # occ.  2.00000000
 
ion      s      p      d    tot
    1  0.000  0.241  0.000  0.241
    2  0.000  0.241  0.000  0.241
    3  0.000  0.241  0.000  0.241
    4  0.000  0.241  0.000  0.241
    5  0.000  0.000  0.000  0.000
    6  0.000  0.000  0.000  0.000
    7  0.000  0.000  0.000  0.000
    8  0.000  0.000  0.000  0.000
    9  0.000  0.000  0.000  0.000
   10  0.000  0.000  0.000  0.000
   11  0.000  0.000  0.000  0.000
   12  0.000  0.000  0.000  0.000
tot    0.000  0.964  0.000  0.965
 
band    15 # energy  -17.83894569 # occ.  2.00000000
 
ion      s      p      d    tot
    1  0.000  0.241  0.000  0.241
    2  0.000  0.241  0.000  0.241
    3  0.000  0.241  0.000  0.241
    4  0.000  0.241  0.000  0.241
    5  0.000  0.000  0.000  0.000
    6  0.000  0.000  0.000  0.000
    7  0.000  0.000  0.000  0.000
    8  0.000  0.000  0.000  0.000
    9  0.000  0.000  0.000  0.000
   10  0.000  0.000  0.000  0.000
   11  0.000  0.000  0.000  0.000
   12  0.000  0.000  0.000  0.000
tot    0.000  0.965  0.000  0.965
 
band    16 # energy  -17.82967579 # occ.  2.00000000
 
ion      s      p      d    tot
    1  0.000  0.241  0.000  0.241
    2  0.000  0.241  0.000  0.241
    3  0.000  0.241  0.000  0.241
    4  0.000  0.241  0.000  0.241
    5  0.000  0.000  0.000  0.000
    6  0.000  0.000  0.000  0.000
    7  0.000  0.000  0.000  0.000
    8  0.000  0.000  0.000  0.000
    9  0.000  0.000  0.000  0.000
   10  0.000  0.000  0.000  0.000
   11  0.000  0.000  0.000  0.000
   12  0.000  0.000  0.000  0.000
tot    0.000  0.966  0.000  0.966
 
band    17 # energy   -4.94589396 # occ.  2.00000000
 
ion      s      p      d    tot
    1  0.008  0.000  0.001  0.010
    2  0.008  0.000  0.001  0.010
    3  0.008  0.000  0.001  0.010
    4  0.008  0.000  0.001  0.010
    5  0.039  0.000  0.018  0.057
    6  0.039  0.000  0.018  0.057
    7  0.039  0.000  0.018  0.057
    8  0.039  0.000  0.018  0.057
    9  0.078  0.000  0.000  0.078
   10  0.078  0.000  0.000  0.078
   11  0.078  0.000  0.000  0.078
   12  0.078  0.000  0.000  0.078
tot    0.500  0.000  0.080  0.580
 
band    18 # energy   -3.85896682 # occ.  2.00000000
 
ion      s      p      d    tot
    1  0.000  0.010  0.000  0.010
    2  0.000  0.010  0.000  0.010
    3  0.000  0.010  0.000  0.010
    4  0.000  0.010  0.000  0.010
    5  0.039  0.000  0.033  0.072
    6  0.039  0.000  0.033  0.072
    7  0.039  0.000  0.033  0.072
    8  0.039  0.000  0.033  0.072
    9  0.092  0.000  0.000  0.092
   10  0.092  0.000  0.000  0.092
   11  0.092  0.000  0.000  0.092
   12  0.092  0.000  0.000  0.092
tot    0.523  0.040  0.132  0.695
 
band    19 # energy   -3.35361168 # occ.  2.00000000
 
ion      s      p      d    tot
    1  0.009  0.000  0.004  0.014
    2  0.009  0.000  0.004  0.014
    3  0.009  0.000  0.004  0.014
    4  0.009  0.000  0.004  0.014
    5  0.000  0.031  0.000  0.031
    6  0.000  0.031  0.000  0.031
    7  0.000  0.031  0.000  0.031
    8  0.000  0.031  0.000  0.031
    9  0.094  0.000  0.000  0.094
   10  0.094  0.000  0.000  0.094
   11  0.094  0.000  0.000  0.094
   12  0.094  0.000  0.000  0.094
tot    0.412  0.125  0.018  0.554
 
band    20 # energy   -2.15562160 # occ.  2.00000000
 
ion      s      p      d    tot
    1  0.000  0.011  0.000  0.011
    2  0.000  0.011  0.000  0.011
    3  0.000  0.011  0.000  0.011
    4  0.000  0.011  0.000  0.011
    5  0.000  0.037  0.000  0.037
    6  0.000  0.037  0.000  0.037
    7  0.000  0.037  0.000  0.037
    8  0.000  0.037  0.000  0.037
    9  0.110  0.000  0.000  0.110
   10  0.110  0.000  0.000  0.110
   11  0.110  0.000  0.000  0.110
   12  0.110  0.000  0.000  0.110
tot    0.440  0.192  0.000  0.633
 
band    21 # energy   -0.96950298 # occ.  2.00000000
 
ion      s      p      d    tot
    1  0.000  0.005  0.000  0.005
    2  0.000  0.005  0.000  0.005
    3  0.000  0.005  0.000  0.005
    4  0.000  0.005  0.000  0.005
    5  0.069  0.000  0.047  0.116
    6  0.069  0.000  0.047  0.116
    7  0.069  0.000  0.047  0.116
    8  0.069  0.000  0.047  0.116
    9  0.000  0.057  0.000  0.057
   10  0.000  0.057  0.000  0.057
   11  0.000  0.057  0.000  0.057
   12  0.000  0.057  0.000  0.057
tot    0.275  0.250  0.190  0.715
 
band    22 # energy   -0.83943373 # occ.  2.00000000
 
ion      s      p      d    tot
    1  0.000  0.000  0.007  0.007
    2  0.000  0.000  0.007  0.007
    3  0.000  0.000  0.007  0.007
    4  0.000  0.000  0.007  0.007
    5  0.059  0.000  0.070  0.129
    6  0.059  0.000  0.070  0.129
    7  0.059  0.000  0.070  0.129
    8  0.059  0.000  0.070  0.129
    9  0.000  0.062  0.000  0.062
   10  0.000  0.062  0.000  0.062
   11  0.000  0.062  0.000  0.062
   12  0.000  0.062  0.000  0.062
tot    0.237  0.247  0.309  0.793
 
band    23 # energy   -0.21385157 # occ.  2.00000000
 
ion      s      p      d    tot
    1  0.010  0.000  0.008  0.018
    2  0.010  0.000  0.008  0.018
    3  0.010  0.000  0.008  0.018
    4  0.010  0.000  0.008  0.018
    5  0.000  0.000  0.091  0.091
    6  0.000  0.000  0.091  0.091
    7  0.000  0.000  0.091  0.091
    8  0.000  0.000  0.091  0.091
    9  0.000  0.040  0.000  0.040
   10  0.000  0.040  0.000  0.040
   11  0.000  0.040  0.000  0.040
   12  0.000  0.040  0.000  0.040
tot    0.041  0.160  0.396  0.597
 
band    24 # energy   -0.00054668 # occ.  2.00000000
 
ion      s      p      d    tot
    1  0.019  0.000  0.006  0.026
    2  0.019  0.000  0.006  0.026
    3  0.019  0.000  0.006  0.026
    4  0.019  0.000  0.006  0.026
    5  0.000  0.021  0.000  0.021
    6  0.000  0.021  0.000  0.021
    7  0.000  0.021  0.000  0.021
    8  0.000  0.021  0.000  0.021
    9  0.000  0.036  0.000  0.036
   10  0.000  0.036  0.000  0.036
   11  0.000  0.036  0.000  0.036
   12  0.000  0.036  0.000  0.036
tot    0.078  0.230  0.024  0.332
 
band    25 # energy    0.76432267 # occ.  2.00000000
 
ion      s      p      d    tot
    1  0.004  0.000  0.006  0.011
    2  0.004  0.000  0.006  0.011
    3  0.004  0.000  0.006  0.011
    4  0.004  0.000  0.006  0.011
    5  0.010  0.000  0.132  0.142
    6  0.010  0.000  0.132  0.142
    7  0.010  0.000  0.132  0.142
    8  0.010  0.000  0.132  0.142
    9  0.010  0.000  0.000  0.010
   10  0.010  0.000  0.000  0.010
   11  0.010  0.000  0.000  0.010
   12  0.010  0.000  0.000  0.010
tot    0.098  0.000  0.552  0.651
 
band    26 # energy    1.08530626 # occ.  2.00000000
 
ion      s      p      d    tot
    1  0.000  0.000  0.013  0.013
    2  0.000  0.000  0.013  0.013
    3  0.000  0.000  0.013  0.013
    4  0.000  0.000  0.013  0.013
    5  0.000  0.000  0.149  0.149
    6  0.000  0.000  0.149  0.149
    7  0.000  0.000  0.149  0.149
    8  0.000  0.000  0.149  0.149
    9  0.000  0.036  0.000  0.036
   10  0.000  0.036  0.000  0.036
   11  0.000  0.036  0.000  0.036
   12  0.000  0.036  0.000  0.036
tot    0.000  0.144  0.647  0.790
 
band    27 # energy    1.18136962 # occ.  2.00000000
 
ion      s      p      d    tot
    1  0.000  0.004  0.000  0.004
    2  0.000  0.004  0.000  0.004
    3  0.000  0.004  0.000  0.004
    4  0.000  0.004  0.000  0.004
    5  0.000  0.000  0.163  0.163
    6  0.000  0.000  0.163  0.163
    7  0.000  0.000  0.163  0.163
    8  0.000  0.000  0.163  0.163
    9  0.000  0.034  0.000  0.034
   10  0.000  0.034  0.000  0.034
   11  0.000  0.034  0.000  0.034
   12  0.000  0.034  0.000  0.034
tot    0.000  0.149  0.652  0.801
 
band    28 # energy    1.18633187 # occ.  2.00000000
 
ion      s      p      d    tot
    1  0.000  0.005  0.000  0.005
    2  0.000  0.005  0.000  0.005
    3  0.000  0.005  0.000  0.005
    4  0.000  0.005  0.000  0.005
    5  0.013  0.000  0.150  0.163
    6  0.013  0.000  0.150  0.163
    7  0.013  0.000  0.150  0.163
    8  0.013  0.000  0.150  0.163
    9  0.000  0.007  0.000  0.007
   10  0.000  0.007  0.000  0.007
   11  0.000  0.007  0.000  0.007
   12  0.000  0.007  0.000  0.007
tot    0.052  0.049  0.602  0.703
 
band    29 # energy    1.44342261 # occ.  2.00000000
 
ion      s      p      d    tot
    1  0.000  0.002  0.000  0.002
    2  0.000  0.002  0.000  0.002
    3  0.000  0.002  0.000  0.002
    4  0.000  0.002  0.000  0.002
    5  0.000  0.000  0.176  0.176
    6  0.000  0.000  0.176  0.176
    7  0.000  0.000  0.176  0.176
    8  0.000  0.000  0.176  0.176
    9  0.000  0.030  0.000  0.030
   10  0.000  0.030  0.000  0.030
   11  0.000  0.030  0.000  0.030
   12  0.000  0.030  0.000  0.030
tot    0.000  0.130  0.703  0.833
 
band    30 # energy    1.56831202 # occ.  2.00000000
 
ion      s      p      d    tot
    1  0.000  0.000  0.009  0.009
    2  0.000  0.000  0.009  0.009
    3  0.000  0.000  0.009  0.009
    4  0.000  0.000  0.009  0.009
    5  0.013  0.000  0.160  0.174
    6  0.013  0.000  0.160  0.174
    7  0.013  0.000  0.160  0.174
    8  0.013  0.000  0.160  0.174
    9  0.000  0.003  0.000  0.003
   10  0.000  0.003  0.000  0.003
   11  0.000  0.003  0.000  0.003
   12  0.000  0.003  0.000  0.003
tot    0.053  0.012  0.678  0.743
 
band    31 # energy    1.75202800 # occ.  2.00000000
 
ion      s      p      d    tot
    1  0.000  0.002  0.000  0.002
    2  0.000  0.002  0.000  0.002
    3  0.000  0.002  0.000  0.002
    4  0.000  0.002  0.000  0.002
    5  0.011  0.000  0.177  0.188
    6  0.011  0.000  0.177  0.188
    7  0.011  0.000  0.177  0.188
    8  0.011  0.000  0.177  0.188
    9  0.002  0.000  0.000  0.002
   10  0.002  0.000  0.000  0.002
   11  0.002  0.000  0.000  0.002
   12  0.002  0.000  0.000  0.002
tot    0.049  0.009  0.709  0.767
 
band    32 # energy    1.88228890 # occ.  2.00000000
 
ion      s      p      d    tot
    1  0.000  0.000  0.010  0.010
    2  0.000  0.000  0.010  0.010
    3  0.000  0.000  0.010  0.010
    4  0.000  0.000  0.010  0.010
    5  0.000  0.000  0.183  0.183
    6  0.000  0.000  0.183  0.183
    7  0.000  0.000  0.183  0.183
    8  0.000  0.000  0.183  0.183
    9  0.000  0.000  0.000  0.000
   10  0.000  0.000  0.000  0.000
   11  0.000  0.000  0.000  0.000
   12  0.000  0.000  0.000  0.000
tot    0.001  0.001  0.770  0.772
 
band    33 # energy    2.18777258 # occ.  2.00000000
 
ion      s      p      d    tot
    1  0.000  0.001  0.000  0.001
    2  0.000  0.001  0.000  0.001
    3  0.000  0.001  0.000  0.001
    4  0.000  0.001  0.000  0.001
    5  0.000  0.000  0.222  0.222
    6  0.000  0.000  0.222  0.222
    7  0.000  0.000  0.222  0.222
    8  0.000  0.000  0.222  0.222
    9  0.000  0.000  0.000  0.000
   10  0.000  0.000  0.000  0.000
   11  0.000  0.000  0.000  0.000
   12  0.000  0.000  0.000  0.000
tot    0.000  0.005  0.887  0.892
 
band    34 # energy    2.24055481 # occ.  2.00000000
 
ion      s      p      d    tot
    1  0.000  0.000  0.000  0.000
    2  0.000  0.000  0.000  0.000
    3  0.000  0.000  0.000  0.000
    4  0.000  0.000  0.000  0.000
    5  0.000  0.000  0.216  0.216
    6  0.000  0.000  0.216  0.216
    7  0.000  0.000  0.216  0.216
    8  0.000  0.000  0.216  0.216
    9  0.000  0.000  0.000  0.000
   10  0.000  0.000  0.000  0.000
   11  0.000  0.000  0.000  0.000
   12  0.000  0.000  0.000  0.000
tot    0.000  0.000  0.862  0.863
 
band    35 # energy    2.28170615 # occ.  2.00000000
 
ion      s      p      d    tot
    1  0.000  0.000  0.003  0.003
    2  0.000  0.000  0.003  0.003
    3  0.000  0.000  0.003  0.003
    4  0.000  0.000  0.003  0.003
    5  0.000  0.000  0.224  0.224
    6  0.000  0.000  0.224  0.224
    7  0.000  0.000  0.224  0.224
    8  0.000  0.000  0.224  0.224
    9  0.000  0.000  0.000  0.000
   10  0.000  0.000  0.000  0.000
   11  0.000  0.000  0.000  0.000
   12  0.000  0.000  0.000  0.000
tot    0.000  0.000  0.908  0.908
 
band    36 # energy    2.39788498 # occ.  2.00000000
 
ion      s      p      d    tot
    1  0.000  0.000  0.002  0.002
    2  0.000  0.000  0.002  0.002
    3  0.000  0.000  0.002  0.002
    4  0.000  0.000  0.002  0.002
    5  0.000  0.001  0.224  0.225
    6  0.000  0.001  0.224  0.225
    7  0.000  0.001  0.224  0.225
    8  0.000  0.001  0.224  0.225
    9  0.000  0.002  0.000  0.002
   10  0.000  0.002  0.000  0.002
   11  0.000  0.002  0.000  0.002
   12  0.000  0.002  0.000  0.002
tot    0.000  0.015  0.905  0.920
 
band    37 # energy    2.45902032 # occ.  2.00000000
 
ion      s      p      d    tot
    1  0.000  0.000  0.000  0.000
    2  0.000  0.000  0.000  0.000
    3  0.000  0.000  0.000  0.000
    4  0.000  0.000  0.000  0.000
    5  0.000  0.001  0.229  0.230
    6  0.000  0.001  0.229  0.230
    7  0.000  0.001  0.229  0.230
    8  0.000  0.001  0.229  0.230
    9  0.000  0.002  0.000  0.002
   10  0.000  0.002  0.000  0.002
   11  0.000  0.002  0.000  0.002
   12  0.000  0.002  0.000  0.002
tot    0.000  0.011  0.917  0.929
 
band    38 # energy    2.58774531 # occ.  2.00000000
 
ion      s      p      d    tot
    1  0.000  0.000  0.005  0.005
    2  0.000  0.000  0.005  0.005
    3  0.000  0.000  0.005  0.005
    4  0.000  0.000  0.005  0.005
    5  0.000  0.000  0.221  0.221
    6  0.000  0.000  0.221  0.221
    7  0.000  0.000  0.221  0.221
    8  0.000  0.000  0.221  0.221
    9  0.000  0.000  0.000  0.000
   10  0.000  0.000  0.000  0.000
   11  0.000  0.000  0.000  0.000
   12  0.000  0.000  0.000  0.000
tot    0.000  0.000  0.904  0.904
 
band    39 # energy    2.68243266 # occ.  1.67538568
 
ion      s      p      d    tot
    1  0.000  0.001  0.000  0.001
    2  0.000  0.001  0.000  0.001
    3  0.000  0.001  0.000  0.001
    4  0.000  0.001  0.000  0.001
    5  0.000  0.000  0.229  0.229
    6  0.000  0.000  0.229  0.229
    7  0.000  0.000  0.229  0.229
    8  0.000  0.000  0.229  0.229
    9  0.000  0.000  0.000  0.000
   10  0.000  0.000  0.000  0.000
   11  0.000  0.000  0.000  0.000
   12  0.000  0.000  0.000  0.000
tot    0.000  0.003  0.916  0.919
 
band    40 # energy    2.75484048 # occ.  0.00000000
 
ion      s      p      d    tot
    1  0.000  0.000  0.003  0.003
    2  0.000  0.000  0.003  0.003
    3  0.000  0.000  0.003  0.003
    4  0.000  0.000  0.003  0.003
    5  0.000  0.000  0.230  0.230
    6  0.000  0.000  0.230  0.230
    7  0.000  0.000  0.230  0.230
    8  0.000  0.000  0.230  0.230
    9  0.000  0.000  0.000  0.000
   10  0.000  0.000  0.000  0.000
   11  0.000  0.000  0.000  0.000
   12  0.000  0.000  0.000  0.000
tot    0.000  0.000  0.930  0.930
 
band    41 # energy    2.83781752 # occ.  0.00000000
 
ion      s      p      d    tot
    1  0.000  0.000  0.000  0.000
    2  0.000  0.000  0.000  0.000
    3  0.000  0.000  0.000  0.000
    4  0.000  0.000  0.000  0.000
    5  0.000  0.000  0.235  0.235
    6  0.000  0.000  0.235  0.235
    7  0.000  0.000  0.235  0.235
    8  0.000  0.000  0.235  0.235
    9  0.000  0.000  0.000  0.000
   10  0.000  0.000  0.000  0.000
   11  0.000  0.000  0.000  0.000
   12  0.000  0.000  0.000  0.000
tot    0.000  0.000  0.942  0.942
 
band    42 # energy    2.96790924 # occ.  0.00000000
 
ion      s      p      d    tot
    1  0.000  0.001  0.000  0.001
    2  0.000  0.001  0.000  0.001
    3  0.000  0.001  0.000  0.001
    4  0.000  0.001  0.000  0.001
    5  0.007  0.000  0.220  0.227
    6  0.007  0.000  0.220  0.227
    7  0.007  0.000  0.220  0.227
    8  0.007  0.000  0.220  0.227
    9  0.000  0.000  0.000  0.000
   10  0.000  0.000  0.000  0.000
   11  0.000  0.000  0.000  0.000
   12  0.000  0.000  0.000  0.000
tot    0.030  0.003  0.880  0.914
 
band    43 # energy    3.02505733 # occ.  0.00000000
 
ion      s      p      d    tot
    1  0.000  0.000  0.004  0.004
    2  0.000  0.000  0.004  0.004
    3  0.000  0.000  0.004  0.004
    4  0.000  0.000  0.004  0.004
    5  0.012  0.000  0.208  0.220
    6  0.012  0.000  0.208  0.220
    7  0.012  0.000  0.208  0.220
    8  0.012  0.000  0.208  0.220
    9  0.000  0.000  0.000  0.000
   10  0.000  0.000  0.000  0.000
   11  0.000  0.000  0.000  0.000
   12  0.000  0.000  0.000  0.000
tot    0.048  0.001  0.850  0.899
 
band    44 # energy    3.19223870 # occ.  0.00000000
 
ion      s      p      d    tot
    1  0.000  0.000  0.024  0.024
    2  0.000  0.000  0.024  0.024
    3  0.000  0.000  0.024  0.024
    4  0.000  0.000  0.024  0.024
    5  0.000  0.069  0.005  0.074
    6  0.000  0.069  0.005  0.074
    7  0.000  0.069  0.005  0.074
    8  0.000  0.069  0.005  0.074
    9  0.000  0.082  0.000  0.082
   10  0.000  0.082  0.000  0.082
   11  0.000  0.082  0.000  0.082
   12  0.000  0.082  0.000  0.082
tot    0.000  0.604  0.114  0.718
 
band    45 # energy    3.37146468 # occ.  0.00000000
 
ion      s      p      d    tot
    1  0.000  0.000  0.049  0.049
    2  0.000  0.000  0.049  0.049
    3  0.000  0.000  0.049  0.049
    4  0.000  0.000  0.049  0.049
    5  0.000  0.014  0.001  0.015
    6  0.000  0.014  0.001  0.015
    7  0.000  0.014  0.001  0.015
    8  0.000  0.014  0.001  0.015
    9  0.000  0.079  0.000  0.079
   10  0.000  0.079  0.000  0.079
   11  0.000  0.079  0.000  0.079
   12  0.000  0.079  0.000  0.079
tot    0.001  0.372  0.200  0.573
 
band    46 # energy    3.48306906 # occ.  0.00000000
 
ion      s      p      d    tot
    1  0.000  0.004  0.000  0.004
    2  0.000  0.004  0.000  0.004
    3  0.000  0.004  0.000  0.004
    4  0.000  0.004  0.000  0.004
    5  0.000  0.078  0.003  0.082
    6  0.000  0.078  0.003  0.082
    7  0.000  0.078  0.003  0.082
    8  0.000  0.078  0.003  0.082
    9  0.000  0.095  0.000  0.095
   10  0.000  0.095  0.000  0.095
   11  0.000  0.095  0.000  0.095
   12  0.000  0.095  0.000  0.095
tot    0.000  0.712  0.013  0.726
 
band    47 # energy    3.88740879 # occ.  0.00000000
 
ion      s      p      d    tot
    1  0.000  0.018  0.000  0.018
    2  0.000  0.018  0.000  0.018
    3  0.000  0.018  0.000  0.018
    4  0.000  0.018  0.000  0.018
    5  0.000  0.040  0.000  0.040
    6  0.000  0.040  0.000  0.040
    7  0.000  0.040  0.000  0.040
    8  0.000  0.040  0.000  0.040
    9  0.000  0.000  0.000  0.000
   10  0.000  0.000  0.000  0.000
   11  0.000  0.000  0.000  0.000
   12  0.000  0.000  0.000  0.000
tot    0.000  0.233  0.000  0.233
 
band    48 # energy    3.89582845 # occ.  0.00000000
 
ion      s      p      d    tot
    1  0.000  0.011  0.000  0.011
    2  0.000  0.011  0.000  0.011
    3  0.000  0.011  0.000  0.011
    4  0.000  0.011  0.000  0.011
    5  0.000  0.023  0.000  0.023
    6  0.000  0.023  0.000  0.023
    7  0.000  0.023  0.000  0.023
    8  0.000  0.023  0.000  0.023
    9  0.000  0.091  0.000  0.091
   10  0.000  0.091  0.000  0.091
   11  0.000  0.091  0.000  0.091
   12  0.000  0.091  0.000  0.091
tot    0.000  0.502  0.001  0.502
 
band    49 # energy    4.64402573 # occ.  0.00000000
 
ion      s      p      d    tot
    1  0.007  0.000  0.027  0.033
    2  0.007  0.000  0.027  0.033
    3  0.007  0.000  0.027  0.033
    4  0.007  0.000  0.027  0.033
    5  0.000  0.000  0.147  0.147
    6  0.000  0.000  0.147  0.147
    7  0.000  0.000  0.147  0.147
    8  0.000  0.000  0.147  0.147
    9  0.000  0.016  0.000  0.016
   10  0.000  0.016  0.000  0.016
   11  0.000  0.016  0.000  0.016
   12  0.000  0.016  0.000  0.016
tot    0.026  0.062  0.695  0.784
 
band    50 # energy    4.75070029 # occ.  0.00000000
 
ion      s      p      d    tot
    1  0.001  0.000  0.088  0.089
    2  0.001  0.000  0.088  0.089
    3  0.001  0.000  0.088  0.089
    4  0.001  0.000  0.088  0.089
    5  0.000  0.004  0.000  0.004
    6  0.000  0.004  0.000  0.004
    7  0.000  0.004  0.000  0.004
    8  0.000  0.004  0.000  0.004
    9  0.000  0.020  0.000  0.020
   10  0.000  0.020  0.000  0.020
   11  0.000  0.020  0.000  0.020
   12  0.000  0.020  0.000  0.020
tot    0.004  0.099  0.353  0.456
 

 k-point     2 :    0.11111111 0.00000000 0.00000000     weight = 0.01388889

band     1 # energy  -36.88664597 # occ.  2.00000000
 
ion      s      p      d    tot
    1  0.246  0.000  0.000  0.246
    2  0.246  0.000  0.000  0.246
    3  0.246  0.000  0.000  0.246
    4  0.246  0.000  0.000  0.246
    5  0.000  0.000  0.000  0.000
    6  0.000  0.000  0.000  0.000
    7  0.000  0.000  0.000  0.000
    8  0.000  0.000  0.000  0.000
    9  0.000  0.000  0.000  0.000
   10  0.000  0.000  0.000  0.000
   11  0.000  0.000  0.000  0.000
   12  0.000  0.000  0.000  0.000
tot    0.984  0.000  0.000  0.984
 
band     2 # energy  -36.87959751 # occ.  2.00000000
 
ion      s      p      d    tot
    1  0.246  0.000  0.000  0.246
    2  0.246  0.000  0.000  0.246
    3  0.246  0.000  0.000  0.246
    4  0.246  0.000  0.000  0.246
    5  0.000  0.000  0.000  0.000
    6  0.000  0.000  0.000  0.000
    7  0.000  0.000  0.000  0.000
    8  0.000  0.000  0.000  0.000
    9  0.000  0.000  0.000  0.000
   10  0.000  0.000  0.000  0.000
   11  0.000  0.000  0.000  0.000
   12  0.000  0.000  0.000  0.000
tot    0.985  0.000  0.000  0.985
 
band     3 # energy  -36.87938626 # occ.  2.00000000
 
ion      s      p      d    tot
    1  0.246  0.000  0.000  0.246
    2  0.246  0.000  0.000  0.246
    3  0.246  0.000  0.000  0.246
    4  0.246  0.000  0.000  0.246
    5  0.000  0.000  0.000  0.000
    6  0.000  0.000  0.000  0.000
    7  0.000  0.000  0.000  0.000
    8  0.000  0.000  0.000  0.000
    9  0.000  0.000  0.000  0.000
   10  0.000  0.000  0.000  0.000
   11  0.000  0.000  0.000  0.000
   12  0.000  0.000  0.000  0.000
tot    0.985  0.000  0.000  0.985
 
band     4 # energy  -36.87266963 # occ.  2.00000000
 
ion      s      p      d    tot
    1  0.246  0.000  0.000  0.246
    2  0.246  0.000  0.000  0.246
    3  0.246  0.000  0.000  0.246
    4  0.246  0.000  0.000  0.246
    5  0.000  0.000  0.000  0.000
    6  0.000  0.000  0.000  0.000
    7  0.000  0.000  0.000  0.000
    8  0.000  0.000  0.000  0.000
    9  0.000  0.000  0.000  0.000
   10  0.000  0.000  0.000  0.000
   11  0.000  0.000  0.000  0.000
   12  0.000  0.000  0.000  0.000
tot    0.985  0.000  0.000  0.985
 
band     5 # energy  -18.03981915 # occ.  2.00000000
 
ion      s      p      d    tot
    1  0.000  0.238  0.000  0.238
    2  0.000  0.238  0.000  0.238
    3  0.000  0.238  0.000  0.238
    4  0.000  0.238  0.000  0.238
    5  0.000  0.000  0.000  0.000
    6  0.000  0.000  0.000  0.000
    7  0.000  0.000  0.000  0.000
    8  0.000  0.000  0.000  0.000
    9  0.000  0.000  0.000  0.000
   10  0.000  0.000  0.000  0.000
   11  0.000  0.000  0.000  0.000
   12  0.000  0.000  0.000  0.000
tot    0.001  0.951  0.000  0.952
 
band     6 # energy  -18.03084275 # occ.  2.00000000
 
ion      s      p      d    tot
    1  0.000  0.236  0.000  0.236
    2  0.000  0.236  0.000  0.236
    3  0.000  0.236  0.000  0.236
    4  0.000  0.236  0.000  0.236
    5  0.000  0.000  0.000  0.000
    6  0.000  0.000  0.000  0.000
    7  0.000  0.000  0.000  0.000
    8  0.000  0.000  0.000  0.000
    9  0.001  0.000  0.000  0.001
   10  0.001  0.000  0.000  0.001
   11  0.001  0.000  0.000  0.001
   12  0.001  0.000  0.000  0.001
tot    0.004  0.942  0.000  0.947
 