PROCAR new format
# of k-points:   35         # of bands:    5         # of ions:    2

 k-point     1 :    0.00000000 0.00000000 0.00000000     weight = 0.00137174

band     1 # energy   -3.18086360 # occ.  2.00000000
 
ion      s      p      d    tot
    1  0.099  0.000  0.000  0.099
    2  0.099  0.000  0.000  0.099
tot    0.197  0.000  0.000  0.197
 
band     2 # energy    5.90279319 # occ.  0.00000000
 
ion      s      p      d    tot
    1  0.000  0.186  0.000  0.186
    2  0.000  0.186  0.000  0.186
tot    0.000  0.373  0.000  0.373
 
band     3 # energy    5.90279319 # occ.  0.00000000
 
ion      s      p      d    tot
    1  0.000  0.186  0.000  0.186
    2  0.000  0.186  0.000  0.186
tot    0.000  0.373  0.000  0.373
 
band     4 # energy    5.90279319 # occ.  0.00000000
 
ion      s      p      d    tot
    1  0.000  0.186  0.000  0.186
    2  0.000  0.186  0.000  0.186
tot    0.000  0.373  0.000  0.373
 
band     5 # energy    8.14716146 # occ.  0.00000000
 
ion      s      p      d    tot
    1  0.000  0.000  0.000  0.000
    2  0.000  0.000  0.000  0.000
tot    0.000  0.000  0.000  0.000
 

 k-point     2 :    0.11111111 0.00000000 0.00000000     weight = 0.00823045

band     1 # energy   -3.06334187 # occ.  2.00000000
 
ion      s      p      d    tot
    1  0.096  0.003  0.000  0.099
    2  0.096  0.003  0.000  0.099
tot    0.193  0.006  0.000  0.198
 
band     2 # energy    4.57461535 # occ.  0.00000000
 
ion      s      p      d    tot
    1  0.007  0.130  0.000  0.138
    2  0.007  0.130  0.000  0.138
tot    0.014  0.261  0.000  0.275
 
band     3 # energy    6.05364538 # occ.  0.00000000
 
ion      s      p      d    tot
    1  0.000  0.187  0.000  0.187
    2  0.000  0.187  0.000  0.187
tot    0.000  0.373  0.000  0.373
 
band     4 # energy    6.05364538 # occ.  0.00000000
 
ion      s      p      d    tot
    1  0.000  0.187  0.000  0.187
    2  0.000  0.187  0.000  0.187
tot    0.000  0.373  0.000  0.373
 
band     5 # energy    8.30403578 # occ.  0.00000000
 
ion      s      p      d    tot
    1  0.000  0.000  0.000  0.000
    2  0.000  0.000  0.000  0.000
tot    0.000  0.000  0.000  0.000
 

 k-point     3 :    0.22222222 0.00000000 0.00000000     weight = 0.00823045

band     1 # energy   -2.70938830 # occ.  2.00000000
 
ion      s      p      d    tot
    1  0.090  0.011  0.000  0.101
    2  0.090  0.011  0.000  0.101
tot    0.180  0.022  0.000  0.201
 
band     2 # energy    2.77273212 # occ.  0.00000000
 
ion      s      p      d    tot
    1  0.020  0.101  0.000  0.121
    2  0.020  0.101  0.000  0.121
tot    0.040  0.202  0.000  0.242
 
band     3 # energy    6.50528511 # occ.  0.00000000
 
ion      s      p      d    tot
    1  0.000  0.187  0.000  0.187
    2  0.000  0.187  0.000  0.187
tot    0.000  0.375  0.000  0.375
 
band     4 # energy    6.50528511 # occ.  0.00000000
 
ion      s      p      d    tot
    1  0.000  0.187  0.000  0.187
    2  0.000  0.187  0.000  0.187
tot    0.000  0.375  0.000  0.375
 
band     5 # energy    8.77465256 # occ.  0.00000000
 
ion      s      p      d    tot
    1  0.000  0.000  0.000  0.000
    2  0.000  0.000  0.000  0.000
tot    0.000  0.000  0.000  0.000
 

 k-point     4 :    0.33333333 0.00000000 0.00000000     weight = 0.00823045

band     1 # energy   -2.11519936 # occ.  2.00000000
 
ion      s      p      d    tot
    1  0.079  0.024  0.000  0.103
    2  0.079  0.024  0.000  0.103
tot    0.159  0.047  0.000  0.206
 
band     2 # energy    1.16910741 # occ.  0.00000000
 
ion      s      p      d    tot
    1  0.035  0.079  0.000  0.114
    2  0.035  0.079  0.000  0.114
tot    0.070  0.159  0.000  0.228
 
band     3 # energy    7.25468335 # occ.  0.00000000
 
ion      s      p      d    tot
    1  0.000  0.189  0.000  0.189
    2  0.000  0.189  0.000  0.189
tot    0.000  0.378  0.000  0.378
 
band     4 # energy    7.25468335 # occ.  0.00000000
 
ion      s      p      d    tot
    1  0.000  0.189  0.000  0.189
    2  0.000  0.189  0.000  0.189
tot    0.000  0.378  0.000  0.378
 
band     5 # energy    9.55899366 # occ.  0.00000000
 
ion      s      p      d    tot
    1  0.000  0.000  0.000  0.000
    2  0.000  0.000  0.000  0.000
tot    0.000  0.000  0.000  0.000
 

 k-point     5 :    0.44444444 0.00000000 0.00000000     weight = 0.00823045

band     1 # energy   -1.27486001 # occ.  2.00000000
 
ion      s      p      d    tot
    1  0.066  0.040  0.000  0.106
    2  0.066  0.040  0.000  0.106
tot    0.132  0.080  0.000  0.212
 
band     2 # energy   -0.18171683 # occ.  2.00000000
 
ion      s      p      d    tot
    1  0.051  0.059  0.000  0.110
    2  0.051  0.059  0.000  0.110
tot    0.101  0.118  0.000  0.219
 
band     3 # energy    8.29489043 # occ.  0.00000000
 
ion      s      p      d    tot
    1  0.000  0.193  0.000  0.193
    2  0.000  0.193  0.000  0.193
tot    0.000  0.386  0.000  0.386
 
band     4 # energy    8.29489043 # occ.  0.00000000
 
ion      s      p      d    tot
    1  0.000  0.193  0.000  0.193
    2  0.000  0.193  0.000  0.193
tot    0.000  0.386  0.000  0.386
 
band     5 # energy    9.61103937 # occ.  0.00000000
 
ion      s      p      d    tot
    1  0.000  0.201  0.000  0.201
    2  0.000  0.201  0.000  0.201
tot    0.000  0.402  0.000  0.402
 

 k-point     6 :    0.11111111 0.11111111 0.00000000     weight = 0.01646091

band     1 # energy   -2.94593190 # occ.  2.00000000
 
ion      s      p      d    tot
    1  0.094  0.006  0.000  0.100
    2  0.094  0.006  0.000  0.100
tot    0.188  0.011  0.000  0.199
 
band     2 # energy    4.31357866 # occ.  0.00000000
 
ion      s      p      d    tot
    1  0.000  0.132  0.000  0.132
    2  0.000  0.132  0.000  0.132
tot    0.000  0.265  0.000  0.265
 
band     3 # energy    5.22782420 # occ.  0.00000000
 
ion      s      p      d    tot
    1  0.017  0.131  0.000  0.148
    2  0.017  0.131  0.000  0.148
tot    0.034  0.263  0.000  0.296
 
band     4 # energy    6.20414349 # occ.  0.00000000
 
ion      s      p      d    tot
    1  0.000  0.187  0.000  0.187
    2  0.000  0.187  0.000  0.187
tot    0.000  0.374  0.000  0.374
 
band     5 # energy    9.23765434 # occ.  0.00000000
 
ion      s      p      d    tot
    1  0.009  0.026  0.000  0.034
    2  0.009  0.026  0.000  0.034
tot    0.017  0.051  0.000  0.069
 

 k-point     7 :    0.22222222 0.11111111 0.00000000     weight = 0.03292181

band     1 # energy   -2.59254033 # occ.  2.00000000
 
ion      s      p      d    tot
    1  0.087  0.014  0.000  0.101
    2  0.087  0.014  0.000  0.101
tot    0.175  0.027  0.000  0.202
 
band     2 # energy    2.80993692 # occ.  0.00000000
 
ion      s      p      d    tot
    1  0.014  0.107  0.000  0.121
    2  0.014  0.107  0.000  0.121
tot    0.028  0.214  0.000  0.242
 
band     3 # energy    5.42035448 # occ.  0.00000000
 
ion      s      p      d    tot
    1  0.017  0.126  0.000  0.143
    2  0.017  0.126  0.000  0.143
tot    0.034  0.252  0.000  0.287
 
band     4 # energy    6.65458372 # occ.  0.00000000
 
ion      s      p      d    tot
    1  0.000  0.188  0.000  0.188
    2  0.000  0.188  0.000  0.188
tot    0.000  0.375  0.000  0.375
 
band     5 # energy    9.90362210 # occ.  0.00000000
 
ion      s      p      d    tot
    1  0.014  0.026  0.000  0.040
    2  0.014  0.026  0.000  0.040
tot    0.029  0.051  0.000  0.080
 

 k-point     8 :    0.33333333 0.11111111 0.00000000     weight = 0.03292181

band     1 # energy   -1.99991461 # occ.  2.00000000
 
ion      s      p      d    tot
    1  0.077  0.027  0.000  0.104
    2  0.077  0.027  0.000  0.104
tot    0.154  0.053  0.000  0.207
 
band     2 # energy    1.25481230 # occ.  0.00000000
 
ion      s      p      d    tot
    1  0.031  0.084  0.000  0.115
    2  0.031  0.084  0.000  0.115
tot    0.062  0.167  0.000  0.229
 
band     3 # energy    6.13121130 # occ.  0.00000000
 
ion      s      p      d    tot
    1  0.017  0.128  0.000  0.144
    2  0.017  0.128  0.000  0.144
tot    0.034  0.255  0.000  0.289
 
band     4 # energy    7.40133341 # occ.  0.00000000
 
ion      s      p      d    tot
    1  0.000  0.190  0.000  0.190
    2  0.000  0.190  0.000  0.190
tot    0.000  0.380  0.000  0.380
 
band     5 # energy    9.99970811 # occ.  0.00000000
 
ion      s      p      d    tot
    1  0.018  0.150  0.000  0.168
    2  0.018  0.150  0.000  0.168
tot    0.037  0.299  0.000  0.336
 

 k-point     9 :    0.44444444 0.11111111 0.00000000     weight = 0.03292181

band     1 # energy   -1.16328286 # occ.  2.00000000
 
ion      s      p      d    tot
    1  0.063  0.043  0.000  0.107
    2  0.063  0.043  0.000  0.107
tot    0.127  0.086  0.000  0.213
 
band     2 # energy   -0.07817030 # occ.  2.00000000
 
ion      s      p      d    tot
    1  0.048  0.063  0.000  0.110
    2  0.048  0.063  0.000  0.110
tot    0.095  0.125  0.000  0.220
 
band     3 # energy    7.15116958 # occ.  0.00000000
 
ion      s      p      d    tot
    1  0.017  0.130  0.000  0.148
    2  0.017  0.130  0.000  0.148
tot    0.034  0.261  0.000  0.295
 
band     4 # energy    8.43601803 # occ.  0.00000000
 
ion      s      p      d    tot
    1  0.000  0.194  0.000  0.194
    2  0.000  0.195  0.000  0.195
tot    0.000  0.389  0.000  0.389
 
band     5 # energy    8.45119901 # occ.  0.00000000
 
ion      s      p      d    tot
    1  0.018  0.136  0.000  0.154
    2  0.018  0.136  0.000  0.154
tot    0.036  0.273  0.000  0.308
 

 k-point    10 :    0.22222222 0.22222222 0.00000000     weight = 0.01646091

band     1 # energy   -2.24156149 # occ.  2.00000000
 
ion      s      p      d    tot
    1  0.081  0.022  0.000  0.103
    2  0.081  0.022  0.000  0.103
tot    0.161  0.044  0.000  0.205
 
band     2 # energy    2.54490898 # occ.  0.00000000
 
ion      s      p      d    tot
    1  0.000  0.121  0.000  0.121
    2  0.000  0.121  0.000  0.121
tot    0.000  0.241  0.000  0.241
 
band     3 # energy    4.39384072 # occ.  0.00000000
 
ion      s      p      d    tot
    1  0.048  0.079  0.000  0.127
    2  0.048  0.079  0.000  0.127
tot    0.096  0.157  0.000  0.254
 
band     4 # energy    7.10084765 # occ.  0.00000000
 
ion      s      p      d    tot
    1  0.000  0.189  0.000  0.189
    2  0.000  0.189  0.000  0.189
tot    0.000  0.379  0.000  0.379
 
band     5 # energy    9.94450202 # occ.  0.00000000
 
ion      s      p      d    tot
    1  0.030  0.128  0.000  0.158
    2  0.030  0.128  0.000  0.158
tot    0.061  0.256  0.000  0.317
 

 k-point    11 :    0.33333333 0.22222222 0.00000000     weight = 0.03292181

band     1 # energy   -1.65551653 # occ.  2.00000000
 
ion      s      p      d    tot
    1  0.070  0.035  0.000  0.105
    2  0.070  0.035  0.000  0.105
tot    0.139  0.071  0.000  0.210
 
band     2 # energy    1.43588717 # occ.  0.00000000
 
ion      s      p      d    tot
    1  0.017  0.100  0.000  0.116
    2  0.017  0.100  0.000  0.116
tot    0.033  0.200  0.000  0.233
 
band     3 # energy    4.65108205 # occ.  0.00000000
 
ion      s      p      d    tot
    1  0.049  0.076  0.000  0.125
    2  0.049  0.076  0.000  0.125
tot    0.098  0.151  0.000  0.249
 
band     4 # energy    7.83825899 # occ.  0.00000000
 
ion      s      p      d    tot
    1  0.000  0.193  0.000  0.193
    2  0.000  0.193  0.000  0.193
tot    0.000  0.386  0.000  0.386
 
band     5 # energy    8.24405571 # occ.  0.00000000
 
ion      s      p      d    tot
    1  0.037  0.103  0.000  0.140
    2  0.037  0.103  0.000  0.140
tot    0.074  0.206  0.000  0.280
 

 k-point    12 :    0.44444444 0.22222222 0.00000000     weight = 0.03292181

band     1 # energy   -0.83497477 # occ.  2.00000000
 
ion      s      p      d    tot
    1  0.055  0.053  0.000  0.108
    2  0.055  0.053  0.000  0.108
tot    0.110  0.106  0.000  0.216
 
band     2 # energy    0.21138935 # occ.  2.00000000
 
ion      s      p      d    tot
    1  0.037  0.075  0.000  0.112
    2  0.037  0.075  0.000  0.112
tot    0.075  0.149  0.000  0.224
 
band     3 # energy    5.53545822 # occ.  0.00000000
 
ion      s      p      d    tot
    1  0.045  0.082  0.000  0.126
    2  0.045  0.082  0.000  0.126
tot    0.090  0.163  0.000  0.253
 
band     4 # energy    6.75586934 # occ.  0.00000000
 
ion      s      p      d    tot
    1  0.041  0.090  0.000  0.131
    2  0.041  0.090  0.000  0.131
tot    0.083  0.179  0.000  0.262
 
band     5 # energy    8.85221576 # occ.  0.00000000
 
ion      s      p      d    tot
    1  0.000  0.201  0.000  0.201
    2  0.000  0.201  0.000  0.201
tot    0.000  0.401  0.000  0.401
 

 k-point    13 :    0.33333333 0.33333333 0.00000000     weight = 0.01646091

band     1 # energy   -1.08809790 # occ.  2.00000000
 
ion      s      p      d    tot
    1  0.058  0.050  0.000  0.107
    2  0.058  0.050  0.000  0.107
tot    0.115  0.100  0.000  0.215
 
band     2 # energy    1.32966933 # occ.  0.00000000
 
ion      s      p      d    tot
    1  0.000  0.118  0.000  0.118
    2  0.000  0.118  0.000  0.118
tot    0.000  0.236  0.000  0.236
 
band     3 # energy    3.87661113 # occ.  0.00000000
 
ion      s      p      d    tot
    1  0.082  0.033  0.000  0.116
    2  0.082  0.033  0.000  0.116
tot    0.164  0.067  0.000  0.231
 
band     4 # energy    6.62022084 # occ.  0.00000000
 
ion      s      p      d    tot
    1  0.053  0.075  0.000  0.127
    2  0.053  0.075  0.000  0.127
tot    0.105  0.149  0.000  0.254
 
band     5 # energy    8.55345569 # occ.  0.00000000
 
ion      s      p      d    tot
    1  0.000  0.200  0.000  0.200
    2  0.000  0.200  0.000  0.200
tot    0.000  0.400  0.000  0.400
 

 k-point    14 :    0.44444444 0.33333333 0.00000000     weight = 0.03292181

band     1 # energy   -0.31719618 # occ.  2.00000000
 
ion      s      p      d    tot
    1  0.040  0.071  0.000  0.111
    2  0.040  0.071  0.000  0.111
tot    0.080  0.142  0.000  0.222
 
band     2 # energy    0.58572625 # occ.  0.00000000
 
ion      s      p      d    tot
    1  0.017  0.098  0.000  0.115
    2  0.017  0.098  0.000  0.115
tot    0.034  0.196  0.000  0.230
 
band     3 # energy    4.23300181 # occ.  0.00000000
 
ion      s      p      d    tot
    1  0.079  0.037  0.000  0.116
    2  0.079  0.037  0.000  0.116
tot    0.158  0.073  0.000  0.231
 
band     4 # energy    5.24872235 # occ.  0.00000000
 
ion      s      p      d    tot
    1  0.066  0.054  0.000  0.120
    2  0.066  0.054  0.000  0.120
tot    0.132  0.108  0.000  0.239
 
band     5 # energy    9.51219519 # occ.  0.00000000
 
ion      s      p      d    tot
    1  0.000  0.215  0.000  0.215
    2  0.000  0.215  0.000  0.215
tot    0.000  0.430  0.000  0.430
 

 k-point    15 :    0.44444444 0.44444444 0.00000000     weight = 0.01646091

band     1 # energy    0.29905899 # occ.  1.99999041
 
ion      s      p      d    tot
    1  0.017  0.098  0.000  0.115
    2  0.017  0.098  0.000  0.115
tot    0.035  0.195  0.000  0.230
 
band     2 # energy    0.71747143 # occ.  0.00000000
 
ion      s      p      d    tot
    1  0.000  0.118  0.000  0.118
    2  0.000  0.118  0.000  0.118
tot    0.000  0.236  0.000  0.236
 
band     3 # energy    3.65007915 # occ.  0.00000000
 
ion      s      p      d    tot
    1  0.105  0.004  0.000  0.110
    2  0.105  0.004  0.000  0.110
tot    0.211  0.008  0.000  0.219
 
band     4 # energy    4.10753164 # occ.  0.00000000
 
ion      s      p      d    tot
    1  0.092  0.021  0.000  0.112
    2  0.092  0.021  0.000  0.112
tot    0.183  0.042  0.000  0.225
 
band     5 # energy   10.30435495 # occ.  0.00000000
 
ion      s      p      d    tot
    1  0.000  0.244  0.000  0.244
    2  0.000  0.246  0.000  0.246
tot    0.000  0.490  0.000  0.490
 

 k-point    16 :    0.11111111 0.11111111 0.11111111     weight = 0.01097394

band     1 # energy   -2.82856036 # occ.  2.00000000
 
ion      s      p      d    tot
    1  0.092  0.008  0.000  0.100
    2  0.092  0.008  0.000  0.100
tot    0.184  0.017  0.000  0.200
 
band     2 # energy    4.46688342 # occ.  0.00000000
 
ion      s      p      d    tot
    1  0.000  0.132  0.000  0.132
    2  0.000  0.132  0.000  0.132
tot    0.000  0.265  0.000  0.265
 
band     3 # energy    4.46688342 # occ.  0.00000000
 
ion      s      p      d    tot
    1  0.000  0.132  0.000  0.132
    2  0.000  0.132  0.000  0.132
tot    0.000  0.265  0.000  0.265
 
band     4 # energy    6.06843908 # occ.  0.00000000
 
ion      s      p      d    tot
    1  0.034  0.146  0.000  0.180
    2  0.034  0.146  0.000  0.180
tot    0.068  0.291  0.000  0.360
 
band     5 # energy   10.51054469 # occ.  0.00000000
 
ion      s      p      d    tot
    1  0.000  0.054  0.000  0.054
    2  0.000  0.054  0.000  0.054
tot    0.000  0.109  0.000  0.109
 

 k-point    17 :    0.22222222 0.11111111 0.11111111     weight = 0.03292181

band     1 # energy   -2.47547912 # occ.  2.00000000
 
ion      s      p      d    tot
    1  0.085  0.016  0.000  0.102
    2  0.085  0.016  0.000  0.102
tot    0.170  0.033  0.000  0.203
 
band     2 # energy    2.88313892 # occ.  0.00000000
 
ion      s      p      d    tot
    1  0.011  0.110  0.000  0.121
    2  0.011  0.110  0.000  0.121
tot    0.022  0.220  0.000  0.242
 
band     3 # energy    4.92634382 # occ.  0.00000000
 
ion      s      p      d    tot
    1  0.000  0.133  0.000  0.133
    2  0.000  0.133  0.000  0.133
tot    0.000  0.266  0.000  0.266
 
band     4 # energy    6.40458426 # occ.  0.00000000
 
ion      s      p      d    tot
    1  0.043  0.135  0.000  0.178
    2  0.043  0.135  0.000  0.178
tot    0.086  0.270  0.000  0.356
 
band     5 # energy   10.97146705 # occ.  0.00000000
 
ion      s      p      d    tot
    1  0.000  0.055  0.000  0.055
    2  0.000  0.055  0.000  0.055
tot    0.000  0.110  0.000  0.110
 

 k-point    18 :    0.33333333 0.11111111 0.11111111     weight = 0.03292181

band     1 # energy   -1.88393484 # occ.  2.00000000
 
ion      s      p      d    tot
    1  0.075  0.029  0.000  0.104
    2  0.075  0.029  0.000  0.104
tot    0.149  0.059  0.000  0.208
 
band     2 # energy    1.34959961 # occ.  0.00000000
 
ion      s      p      d    tot
    1  0.028  0.087  0.000  0.115
    2  0.028  0.087  0.000  0.115
tot    0.056  0.174  0.000  0.230
 
band     3 # energy    5.69041055 # occ.  0.00000000
 
ion      s      p      d    tot
    1  0.000  0.134  0.000  0.134
    2  0.000  0.134  0.000  0.134
tot    0.000  0.267  0.000  0.267
 
band     4 # energy    7.07390061 # occ.  0.00000000
 
ion      s      p      d    tot
    1  0.045  0.134  0.000  0.179
    2  0.045  0.134  0.000  0.179
tot    0.091  0.267  0.000  0.358
 
band     5 # energy    9.75112001 # occ.  0.00000000
 
ion      s      p      d    tot
    1  0.000  0.152  0.000  0.152
    2  0.000  0.152  0.000  0.152
tot    0.000  0.304  0.000  0.304
 

 k-point    19 :    0.44444444 0.11111111 0.11111111     weight = 0.03292181

band     1 # energy   -1.05011882 # occ.  2.00000000
 
ion      s      p      d    tot
    1  0.061  0.046  0.000  0.107
    2  0.061  0.046  0.000  0.107
tot    0.122  0.092  0.000  0.214
 
band     2 # energy    0.02888797 # occ.  2.00000000
 
ion      s      p      d    tot
    1  0.045  0.066  0.000  0.111
    2  0.045  0.066  0.000  0.111
tot    0.090  0.132  0.000  0.221
 
band     3 # energy    6.75565454 # occ.  0.00000000
 
ion      s      p      d    tot
    1  0.000  0.136  0.000  0.136
    2  0.000  0.136  0.000  0.136
tot    0.000  0.272  0.000  0.272
 
band     4 # energy    8.01159255 # occ.  0.00000000
 
ion      s      p      d    tot
    1  0.047  0.136  0.000  0.183
    2  0.047  0.136  0.000  0.183
tot    0.093  0.272  0.000  0.365
 
band     5 # energy    8.11484404 # occ.  0.00000000
 
ion      s      p      d    tot
    1  0.000  0.141  0.000  0.141
    2  0.000  0.141  0.000  0.141
tot    0.000  0.282  0.000  0.282
 

 k-point    20 :    0.22222222 0.22222222 0.11111111     weight = 0.03292181

band     1 # energy   -2.12399167 # occ.  2.00000000
 
ion      s      p      d    tot
    1  0.078  0.025  0.000  0.103
    2  0.078  0.025  0.000  0.103
tot    0.157  0.049  0.000  0.206
 
band     2 # energy    2.69909548 # occ.  0.00000000
 
ion      s      p      d    tot
    1  0.000  0.121  0.000  0.121
    2  0.000  0.121  0.000  0.121
tot    0.000  0.241  0.000  0.241
 
band     3 # energy    4.11518695 # occ.  0.00000000
 
ion      s      p      d    tot
    1  0.022  0.102  0.000  0.124
    2  0.022  0.102  0.000  0.124
tot    0.045  0.203  0.000  0.248
 
band     4 # energy    6.64157477 # occ.  0.00000000
 
ion      s      p      d    tot
    1  0.057  0.117  0.000  0.174
    2  0.057  0.117  0.000  0.174
tot    0.114  0.235  0.000  0.349
 
band     5 # energy    9.99597602 # occ.  0.00000000
 
ion      s      p      d    tot
    1  0.022  0.133  0.000  0.155
    2  0.022  0.133  0.000  0.155
tot    0.043  0.267  0.000  0.310
 

 k-point    21 :    0.33333333 0.22222222 0.11111111     weight = 0.06584362

band     1 # energy   -1.53751046 # occ.  2.00000000
 
ion      s      p      d    tot
    1  0.068  0.038  0.000  0.105
    2  0.068  0.038  0.000  0.105
tot    0.135  0.076  0.000  0.211
 
band     2 # energy    1.56085172 # occ.  0.00000000
 
ion      s      p      d    tot
    1  0.016  0.101  0.000  0.116
    2  0.016  0.101  0.000  0.116
tot    0.032  0.201  0.000  0.233
 
band     3 # energy    4.50579195 # occ.  0.00000000
 
ion      s      p      d    tot
    1  0.027  0.096  0.000  0.123
    2  0.027  0.096  0.000  0.123
tot    0.054  0.192  0.000  0.246
 
band     4 # energy    7.26264801 # occ.  0.00000000
 
ion      s      p      d    tot
    1  0.057  0.118  0.000  0.175
    2  0.057  0.118  0.000  0.175
tot    0.114  0.236  0.000  0.350
 
band     5 # energy    8.26790368 # occ.  0.00000000
 
ion      s      p      d    tot
    1  0.026  0.112  0.000  0.137
    2  0.026  0.112  0.000  0.137
tot    0.052  0.223  0.000  0.275
 

 k-point    22 :    0.44444444 0.22222222 0.11111111     weight = 0.06584362

band     1 # energy   -0.71693202 # occ.  2.00000000
 
ion      s      p      d    tot
    1  0.053  0.055  0.000  0.108
    2  0.053  0.055  0.000  0.108
tot    0.106  0.111  0.000  0.217
 
band     2 # energy    0.32961747 # occ.  1.08333573
 
ion      s      p      d    tot
    1  0.036  0.077  0.000  0.112
    2  0.036  0.077  0.000  0.112
tot    0.071  0.153  0.000  0.224
 
band     3 # energy    5.46005839 # occ.  0.00000000
 
ion      s      p      d    tot
    1  0.027  0.098  0.000  0.125
    2  0.027  0.098  0.000  0.125
tot    0.053  0.196  0.000  0.249
 
band     4 # energy    6.73312892 # occ.  0.00000000
 
ion      s      p      d    tot
    1  0.027  0.102  0.000  0.129
    2  0.027  0.102  0.000  0.129
tot    0.053  0.204  0.000  0.258
 
band     5 # energy    8.15482158 # occ.  0.00000000
 
ion      s      p      d    tot
    1  0.053  0.125  0.000  0.178
    2  0.053  0.125  0.000  0.178
tot    0.107  0.250  0.000  0.356
 

 k-point    23 :    0.33333333 0.33333333 0.11111111     weight = 0.03292181

band     1 # energy   -0.96671213 # occ.  2.00000000
 
ion      s      p      d    tot
    1  0.056  0.052  0.000  0.108
    2  0.056  0.052  0.000  0.108
tot    0.112  0.104  0.000  0.216
 
band     2 # energy    1.48422980 # occ.  0.00000000
 
ion      s      p      d    tot
    1  0.000  0.118  0.000  0.118
    2  0.000  0.118  0.000  0.118
tot    0.000  0.236  0.000  0.236
 
band     3 # energy    3.80157301 # occ.  0.00000000
 
ion      s      p      d    tot
    1  0.064  0.052  0.000  0.116
    2  0.064  0.052  0.000  0.116
tot    0.128  0.104  0.000  0.232
 
band     4 # energy    6.66699535 # occ.  0.00000000
 
ion      s      p      d    tot
    1  0.043  0.083  0.000  0.126
    2  0.043  0.083  0.000  0.126
tot    0.087  0.166  0.000  0.253
 
band     5 # energy    7.85595195 # occ.  0.00000000
 
ion      s      p      d    tot
    1  0.054  0.123  0.000  0.176
    2  0.053  0.123  0.000  0.176
tot    0.107  0.245  0.000  0.352
 

 k-point    24 :    0.44444444 0.33333333 0.11111111     weight = 0.06584362

band     1 # energy   -0.19029834 # occ.  2.00000000
 
ion      s      p      d    tot
    1  0.039  0.072  0.000  0.111
    2  0.039  0.072  0.000  0.111
tot    0.078  0.144  0.000  0.222
 
band     2 # energy    0.72418602 # occ.  0.00000000
 
ion      s      p      d    tot
    1  0.017  0.098  0.000  0.115
    2  0.017  0.098  0.000  0.115
tot    0.034  0.196  0.000  0.230
 
band     3 # energy    4.22274195 # occ.  0.00000000
 
ion      s      p      d    tot
    1  0.065  0.051  0.000  0.116
    2  0.065  0.051  0.000  0.116
tot    0.129  0.102  0.000  0.232
 
band     4 # energy    5.27872027 # occ.  0.00000000
 
ion      s      p      d    tot
    1  0.055  0.065  0.000  0.120
    2  0.055  0.065  0.000  0.120
tot    0.110  0.129  0.000  0.239
 
band     5 # energy    8.71175812 # occ.  0.00000000
 
ion      s      p      d    tot
    1  0.046  0.135  0.000  0.181
    2  0.046  0.135  0.000  0.181
tot    0.092  0.270  0.000  0.362
 

 k-point    25 :    0.44444444 0.44444444 0.11111111     weight = 0.03292181

band     1 # energy    0.44060610 # occ.  0.00000000
 
ion      s      p      d    tot
    1  0.017  0.098  0.000  0.115
    2  0.017  0.098  0.000  0.115
tot    0.034  0.195  0.000  0.230
 
band     2 # energy    0.87216631 # occ.  0.00000000
 
ion      s      p      d    tot
    1  0.000  0.118  0.000  0.118
    2  0.000  0.118  0.000  0.118
tot    0.000  0.235  0.000  0.235
 
band     3 # energy    3.65596714 # occ.  0.00000000
 
ion      s      p      d    tot
    1  0.094  0.017  0.000  0.110
    2  0.094  0.017  0.000  0.110
tot    0.187  0.033  0.000  0.221
 
band     4 # energy    4.13585886 # occ.  0.00000000
 
ion      s      p      d    tot
    1  0.081  0.032  0.000  0.113
    2  0.081  0.032  0.000  0.113
tot    0.162  0.064  0.000  0.226
 
band     5 # energy    9.50707573 # occ.  0.00000000
 
ion      s      p      d    tot
    1  0.034  0.155  0.000  0.189
    2  0.034  0.155  0.000  0.189
tot    0.068  0.309  0.000  0.377
 

 k-point    26 :    0.22222222 0.22222222 0.22222222     weight = 0.01097394

band     1 # energy   -1.77153406 # occ.  2.00000000
 
ion      s      p      d    tot
    1  0.072  0.032  0.000  0.104
    2  0.072  0.032  0.000  0.104
tot    0.144  0.065  0.000  0.209
 
band     2 # energy    3.16140221 # occ.  0.00000000
 
ion      s      p      d    tot
    1  0.000  0.120  0.000  0.120
    2  0.000  0.120  0.000  0.120
tot    0.000  0.241  0.000  0.241
 
band     3 # energy    3.16140221 # occ.  0.00000000
 
ion      s      p      d    tot
    1  0.000  0.120  0.000  0.120
    2  0.000  0.120  0.000  0.120
tot    0.000  0.241  0.000  0.241
 
band     4 # energy    6.40715529 # occ.  0.00000000
 
ion      s      p      d    tot
    1  0.112  0.052  0.000  0.163
    2  0.112  0.052  0.000  0.163
tot    0.223  0.103  0.000  0.327
 
band     5 # energy    9.99240928 # occ.  0.00000000
 
ion      s      p      d    tot
    1  0.000  0.141  0.000  0.141
    2  0.000  0.141  0.000  0.141
tot    0.000  0.282  0.000  0.282
 

 k-point    27 :    0.33333333 0.22222222 0.22222222     weight = 0.03292181

band     1 # energy   -1.18528421 # occ.  2.00000000
 
ion      s      p      d    tot
    1  0.061  0.045  0.000  0.107
    2  0.061  0.045  0.000  0.107
tot    0.123  0.091  0.000  0.213
 
band     2 # energy    1.88447770 # occ.  0.00000000
 
ion      s      p      d    tot
    1  0.011  0.106  0.000  0.117
    2  0.011  0.106  0.000  0.117
tot    0.023  0.211  0.000  0.234
 
band     3 # energy    3.93094621 # occ.  0.00000000
 
ion      s      p      d    tot
    1  0.000  0.120  0.000  0.120
    2  0.000  0.120  0.000  0.120
tot    0.000  0.241  0.000  0.241
 
band     4 # energy    6.74317625 # occ.  0.00000000
 
ion      s      p      d    tot
    1  0.120  0.040  0.000  0.160
    2  0.120  0.040  0.000  0.160
tot    0.239  0.080  0.000  0.320
 
band     5 # energy    8.05160908 # occ.  0.00000000
 
ion      s      p      d    tot
    1  0.000  0.128  0.000  0.128
    2  0.000  0.128  0.000  0.128
tot    0.000  0.257  0.000  0.257
 

 k-point    28 :    0.44444444 0.22222222 0.22222222     weight = 0.03292181

band     1 # energy   -0.36884379 # occ.  2.00000000
 
ion      s      p      d    tot
    1  0.047  0.063  0.000  0.110
    2  0.047  0.063  0.000  0.110
tot    0.094  0.125  0.000  0.219
 
band     2 # energy    0.66646225 # occ.  0.00000000
 
ion      s      p      d    tot
    1  0.030  0.083  0.000  0.113
    2  0.030  0.083  0.000  0.113
tot    0.059  0.167  0.000  0.226
 
band     3 # energy    5.00583164 # occ.  0.00000000
 
ion      s      p      d    tot
    1  0.000  0.121  0.000  0.121
    2  0.000  0.121  0.000  0.121
tot    0.000  0.242  0.000  0.242
 
band     4 # energy    6.38218535 # occ.  0.00000000
 
ion      s      p      d    tot
    1  0.000  0.123  0.000  0.123
    2  0.000  0.123  0.000  0.123
tot    0.000  0.246  0.000  0.246
 
band     5 # energy    7.40554783 # occ.  0.00000000
 
ion      s      p      d    tot
    1  0.110  0.051  0.000  0.160
    2  0.110  0.051  0.000  0.160
tot    0.219  0.101  0.000  0.320
 

 k-point    29 :    0.33333333 0.33333333 0.22222222     weight = 0.03292181

band     1 # energy   -0.60549888 # occ.  2.00000000
 
ion      s      p      d    tot
    1  0.051  0.058  0.000  0.109
    2  0.051  0.058  0.000  0.109
tot    0.101  0.116  0.000  0.217
 
band     2 # energy    1.94770083 # occ.  0.00000000
 
ion      s      p      d    tot
    1  0.000  0.118  0.000  0.118
    2  0.000  0.118  0.000  0.118
tot    0.000  0.236  0.000  0.236
 
band     3 # energy    3.46656632 # occ.  0.00000000
 
ion      s      p      d    tot
    1  0.021  0.096  0.000  0.117
    2  0.021  0.096  0.000  0.117
tot    0.042  0.192  0.000  0.234
 
band     4 # energy    6.78148690 # occ.  0.00000000
 
ion      s      p      d    tot
    1  0.019  0.105  0.000  0.124
    2  0.019  0.105  0.000  0.124
tot    0.038  0.210  0.000  0.248
 
band     5 # energy    6.88580349 # occ.  0.00000000
 
ion      s      p      d    tot