PROCAR new format
# of k-points:   50         # of bands:   30         # of ions:    8

 k-point     1 :    0.00000000 0.00000000 0.00000000     weight = 0.00347222

band     1 # energy  -36.11696624 # occ.  2.00000000
 
ion      s      p      d    tot
    1  0.492  0.000  0.000  0.492
    2  0.492  0.000  0.000  0.492
    3  0.000  0.000  0.000  0.000
    4  0.000  0.000  0.000  0.000
    5  0.000  0.000  0.000  0.000
    6  0.000  0.000  0.000  0.000
    7  0.000  0.000  0.000  0.000
    8  0.000  0.000  0.000  0.000
tot    0.984  0.000  0.000  0.984
 
band     2 # energy  -36.10109620 # occ.  2.00000000
 
ion      s      p      d    tot
    1  0.493  0.000  0.000  0.493
    2  0.493  0.000  0.000  0.493
    3  0.000  0.000  0.000  0.000
    4  0.000  0.000  0.000  0.000
    5  0.000  0.000  0.000  0.000
    6  0.000  0.000  0.000  0.000
    7  0.000  0.000  0.000  0.000
    8  0.000  0.000  0.000  0.000
tot    0.985  0.000  0.000  0.985
 
band     3 # energy  -17.24340982 # occ.  2.00000000
 
ion      s      p      d    tot
    1  0.000  0.472  0.000  0.472
    2  0.000  0.477  0.000  0.477
    3  0.000  0.000  0.000  0.000
    4  0.000  0.000  0.000  0.000
    5  0.001  0.000  0.000  0.001
    6  0.000  0.000  0.000  0.000
    7  0.001  0.000  0.000  0.001
    8  0.000  0.000  0.000  0.000
tot    0.002  0.949  0.000  0.950
 
band     4 # energy  -17.24340982 # occ.  2.00000000
 
ion      s      p      d    tot
    1  0.000  0.477  0.000  0.477
    2  0.000  0.472  0.000  0.472
    3  0.000  0.000  0.000  0.000
    4  0.000  0.000  0.000  0.000
    5  0.000  0.000  0.000  0.000
    6  0.001  0.000  0.000  0.001
    7  0.000  0.000  0.000  0.000
    8  0.001  0.000  0.000  0.001
tot    0.002  0.949  0.000  0.950
 
band     5 # energy  -17.19900867 # occ.  2.00000000
 
ion      s      p      d    tot
    1  0.000  0.478  0.000  0.478
    2  0.000  0.478  0.000  0.478
    3  0.000  0.000  0.000  0.000
    4  0.000  0.000  0.000  0.000
    5  0.000  0.000  0.000  0.000
    6  0.000  0.000  0.000  0.000
    7  0.000  0.000  0.000  0.000
    8  0.000  0.000  0.000  0.000
tot    0.000  0.958  0.000  0.958
 
band     6 # energy  -17.16259437 # occ.  2.00000000
 
ion      s      p      d    tot
    1  0.000  0.480  0.000  0.480
    2  0.000  0.480  0.000  0.480
    3  0.000  0.000  0.000  0.000
    4  0.000  0.000  0.000  0.000
    5  0.000  0.000  0.000  0.000
    6  0.000  0.000  0.000  0.000
    7  0.000  0.000  0.000  0.000
    8  0.000  0.000  0.000  0.000
tot    0.000  0.961  0.000  0.961
 
band     7 # energy  -17.12626888 # occ.  2.00000000
 
ion      s      p      d    tot
    1  0.000  0.478  0.000  0.478
    2  0.000  0.483  0.000  0.483
    3  0.000  0.000  0.000  0.000
    4  0.000  0.000  0.000  0.000
    5  0.000  0.000  0.000  0.000
    6  0.000  0.000  0.000  0.000
    7  0.000  0.000  0.000  0.000
    8  0.000  0.000  0.000  0.000
tot    0.000  0.961  0.000  0.961
 
band     8 # energy  -17.12626888 # occ.  2.00000000
 
ion      s      p      d    tot
    1  0.000  0.483  0.000  0.483
    2  0.000  0.478  0.000  0.478
    3  0.000  0.000  0.000  0.000
    4  0.000  0.000  0.000  0.000
    5  0.000  0.000  0.000  0.000
    6  0.000  0.000  0.000  0.000
    7  0.000  0.000  0.000  0.000
    8  0.000  0.000  0.000  0.000
tot    0.000  0.961  0.000  0.961
 
band     9 # energy   -5.61133728 # occ.  2.00000000
 
ion      s      p      d    tot
    1  0.013  0.000  0.001  0.014
    2  0.013  0.000  0.001  0.014
    3  0.090  0.000  0.016  0.106
    4  0.090  0.000  0.016  0.106
    5  0.085  0.000  0.000  0.085
    6  0.085  0.000  0.000  0.085
    7  0.085  0.000  0.000  0.085
    8  0.085  0.000  0.000  0.085
tot    0.545  0.000  0.034  0.578
 
band    10 # energy   -1.56466896 # occ.  2.00000000
 
ion      s      p      d    tot
    1  0.000  0.016  0.000  0.016
    2  0.000  0.016  0.000  0.016
    3  0.000  0.077  0.000  0.077
    4  0.000  0.077  0.000  0.077
    5  0.068  0.000  0.000  0.068
    6  0.154  0.000  0.000  0.154
    7  0.068  0.000  0.000  0.068
    8  0.154  0.000  0.000  0.154
tot    0.444  0.186  0.001  0.631
 
band    11 # energy   -1.56466896 # occ.  2.00000000
 
ion      s      p      d    tot
    1  0.000  0.016  0.000  0.016
    2  0.000  0.016  0.000  0.016
    3  0.000  0.077  0.000  0.077
    4  0.000  0.077  0.000  0.077
    5  0.154  0.000  0.000  0.154
    6  0.068  0.000  0.000  0.068
    7  0.154  0.000  0.000  0.154
    8  0.068  0.000  0.000  0.068
tot    0.444  0.186  0.001  0.631
 
band    12 # energy   -1.54679788 # occ.  2.00000000
 
ion      s      p      d    tot
    1  0.000  0.000  0.010  0.010
    2  0.000  0.000  0.010  0.010
    3  0.000  0.000  0.227  0.227
    4  0.000  0.000  0.227  0.227
    5  0.091  0.000  0.000  0.091
    6  0.091  0.000  0.000  0.091
    7  0.091  0.000  0.000  0.091
    8  0.091  0.000  0.000  0.091
tot    0.365  0.000  0.476  0.841
 
band    13 # energy   -1.26486416 # occ.  2.00000000
 
ion      s      p      d    tot
    1  0.014  0.000  0.012  0.026
    2  0.014  0.000  0.012  0.026
    3  0.000  0.000  0.140  0.140
    4  0.000  0.000  0.140  0.140
    5  0.000  0.055  0.000  0.055
    6  0.000  0.055  0.000  0.055
    7  0.000  0.055  0.000  0.055
    8  0.000  0.055  0.000  0.055
tot    0.029  0.221  0.303  0.553
 
band    14 # energy   -0.84900843 # occ.  2.00000000
 
ion      s      p      d    tot
    1  0.000  0.000  0.012  0.012
    2  0.000  0.000  0.012  0.012
    3  0.172  0.000  0.049  0.222
    4  0.172  0.000  0.049  0.222
    5  0.000  0.074  0.000  0.074
    6  0.000  0.074  0.000  0.074
    7  0.000  0.074  0.000  0.074
    8  0.000  0.074  0.000  0.074
tot    0.344  0.297  0.122  0.763
 
band    15 # energy    0.49153717 # occ.  2.00000000
 
ion      s      p      d    tot
    1  0.000  0.000  0.000  0.000
    2  0.000  0.000  0.000  0.000
    3  0.000  0.000  0.401  0.401
    4  0.000  0.000  0.401  0.401
    5  0.000  0.053  0.000  0.053
    6  0.000  0.053  0.000  0.053
    7  0.000  0.053  0.000  0.053
    8  0.000  0.053  0.000  0.053
tot    0.000  0.211  0.803  1.013
 
band    16 # energy    1.40848970 # occ.  2.00000000
 
ion      s      p      d    tot
    1  0.000  0.000  0.025  0.025
    2  0.000  0.000  0.025  0.025
    3  0.000  0.000  0.277  0.277
    4  0.000  0.000  0.277  0.277
    5  0.000  0.050  0.000  0.050
    6  0.000  0.025  0.000  0.025
    7  0.000  0.050  0.000  0.050
    8  0.000  0.025  0.000  0.025
tot    0.000  0.151  0.603  0.754
 
band    17 # energy    1.40848970 # occ.  2.00000000
 
ion      s      p      d    tot
    1  0.000  0.000  0.025  0.025
    2  0.000  0.000  0.025  0.025
    3  0.000  0.000  0.277  0.277
    4  0.000  0.000  0.277  0.277
    5  0.000  0.025  0.000  0.025
    6  0.000  0.050  0.000  0.050
    7  0.000  0.025  0.000  0.025
    8  0.000  0.050  0.000  0.050
tot    0.000  0.151  0.603  0.754
 
band    18 # energy    2.14402746 # occ.  2.00000000
 
ion      s      p      d    tot
    1  0.005  0.000  0.014  0.019
    2  0.005  0.000  0.014  0.019
    3  0.005  0.000  0.320  0.326
    4  0.005  0.000  0.320  0.326
    5  0.003  0.002  0.000  0.005
    6  0.003  0.002  0.000  0.005
    7  0.003  0.002  0.000  0.005
    8  0.003  0.002  0.000  0.005
tot    0.031  0.009  0.668  0.708
 
band    19 # energy    2.40071019 # occ.  2.00000000
 
ion      s      p      d    tot
    1  0.000  0.000  0.003  0.003
    2  0.000  0.000  0.003  0.003
    3  0.000  0.000  0.449  0.449
    4  0.000  0.000  0.449  0.449
    5  0.000  0.000  0.000  0.000
    6  0.000  0.000  0.000  0.000
    7  0.000  0.000  0.000  0.000
    8  0.000  0.000  0.000  0.000
tot    0.000  0.000  0.904  0.904
 
band    20 # energy    2.48527186 # occ.  2.00000000
 
ion      s      p      d    tot
    1  0.000  0.008  0.001  0.009
    2  0.000  0.008  0.001  0.009
    3  0.000  0.098  0.068  0.165
    4  0.000  0.098  0.068  0.165
    5  0.000  0.079  0.000  0.079
    6  0.000  0.091  0.000  0.091
    7  0.000  0.079  0.000  0.079
    8  0.000  0.091  0.000  0.091
tot    0.000  0.552  0.137  0.689
 
band    21 # energy    2.48527186 # occ.  2.00000000
 
ion      s      p      d    tot
    1  0.000  0.008  0.001  0.009
    2  0.000  0.008  0.001  0.009
    3  0.000  0.098  0.068  0.165
    4  0.000  0.098  0.068  0.165
    5  0.000  0.091  0.000  0.091
    6  0.000  0.079  0.000  0.079
    7  0.000  0.091  0.000  0.091
    8  0.000  0.079  0.000  0.079
tot    0.000  0.552  0.137  0.689
 
band    22 # energy    2.51313629 # occ.  2.00000000
 
ion      s      p      d    tot
    1  0.000  0.000  0.015  0.015
    2  0.000  0.000  0.015  0.015
    3  0.012  0.000  0.357  0.369
    4  0.012  0.000  0.357  0.369
    5  0.000  0.002  0.000  0.002
    6  0.000  0.002  0.000  0.002
    7  0.000  0.002  0.000  0.002
    8  0.000  0.002  0.000  0.002
tot    0.024  0.007  0.744  0.775
 
band    23 # energy    2.93320206 # occ.  2.00000000
 
ion      s      p      d    tot
    1  0.000  0.002  0.005  0.006
    2  0.000  0.002  0.005  0.006
    3  0.000  0.018  0.381  0.399
    4  0.000  0.018  0.381  0.399
    5  0.000  0.014  0.000  0.014
    6  0.000  0.014  0.000  0.014
    7  0.000  0.014  0.000  0.014
    8  0.000  0.014  0.000  0.014
tot    0.000  0.093  0.772  0.865
 
band    24 # energy    2.93320206 # occ.  2.00000000
 
ion      s      p      d    tot
    1  0.000  0.002  0.005  0.006
    2  0.000  0.002  0.005  0.006
    3  0.000  0.018  0.381  0.399
    4  0.000  0.018  0.381  0.399
    5  0.000  0.014  0.000  0.014
    6  0.000  0.014  0.000  0.014
    7  0.000  0.014  0.000  0.014
    8  0.000  0.014  0.000  0.014
tot    0.000  0.093  0.772  0.865
 
band    25 # energy    3.36170028 # occ.  2.00000000
 
ion      s      p      d    tot
    1  0.000  0.021  0.001  0.022
    2  0.000  0.021  0.001  0.022
    3  0.001  0.051  0.004  0.055
    4  0.001  0.051  0.004  0.055
    5  0.000  0.085  0.000  0.085
    6  0.000  0.085  0.000  0.085
    7  0.000  0.085  0.000  0.085
    8  0.000  0.085  0.000  0.085
tot    0.002  0.484  0.009  0.495
 
band    26 # energy    4.75330183 # occ.  0.00000000
 
ion      s      p      d    tot
    1  0.009  0.000  0.030  0.038
    2  0.009  0.000  0.030  0.038
    3  0.000  0.000  0.346  0.346
    4  0.000  0.000  0.346  0.346
    5  0.000  0.011  0.000  0.011
    6  0.000  0.011  0.000  0.011
    7  0.000  0.011  0.000  0.011
    8  0.000  0.011  0.000  0.011
tot    0.018  0.044  0.751  0.814
 
band    27 # energy    5.43337815 # occ.  0.00000000
 
ion      s      p      d    tot
    1  0.000  0.000  0.098  0.098
    2  0.000  0.000  0.098  0.098
    3  0.000  0.000  0.222  0.222
    4  0.000  0.000  0.222  0.222
    5  0.013  0.002  0.000  0.016
    6  0.013  0.002  0.000  0.016
    7  0.013  0.002  0.000  0.016
    8  0.013  0.002  0.000  0.016
tot    0.052  0.010  0.640  0.703
 
band    28 # energy    6.06649850 # occ.  0.00000000
 
ion      s      p      d    tot
    1  0.000  0.000  0.166  0.167
    2  0.000  0.000  0.166  0.167
    3  0.003  0.000  0.115  0.118
    4  0.003  0.000  0.115  0.118
    5  0.001  0.000  0.000  0.001
    6  0.001  0.000  0.000  0.001
    7  0.001  0.000  0.000  0.001
    8  0.001  0.000  0.000  0.001
tot    0.010  0.001  0.562  0.573
 
band    29 # energy    6.19080399 # occ.  0.00000000
 
ion      s      p      d    tot
    1  0.000  0.000  0.094  0.094
    2  0.000  0.000  0.097  0.097
    3  0.000  0.000  0.213  0.213
    4  0.000  0.000  0.213  0.213
    5  0.000  0.073  0.000  0.073
    6  0.000  0.005  0.000  0.005
    7  0.000  0.073  0.000  0.073
    8  0.000  0.005  0.000  0.005
tot    0.000  0.156  0.617  0.773
 
band    30 # energy    6.19080399 # occ.  0.00000000
 
ion      s      p      d    tot
    1  0.000  0.000  0.097  0.097
    2  0.000  0.000  0.094  0.094
    3  0.000  0.000  0.213  0.213
    4  0.000  0.000  0.213  0.213
    5  0.000  0.005  0.000  0.005
    6  0.000  0.073  0.000  0.073
    7  0.000  0.005  0.000  0.005
    8  0.000  0.073  0.000  0.073
tot    0.000  0.156  0.617  0.773
 

 k-point     2 :    0.16666667 0.00000000 0.00000000     weight = 0.01388889

band     1 # energy  -36.11589007 # occ.  2.00000000
 
ion      s      p      d    tot
    1  0.492  0.000  0.000  0.492
    2  0.492  0.000  0.000  0.492
    3  0.000  0.000  0.000  0.000
    4  0.000  0.000  0.000  0.000
    5  0.000  0.000  0.000  0.000
    6  0.000  0.000  0.000  0.000
    7  0.000  0.000  0.000  0.000
    8  0.000  0.000  0.000  0.000
tot    0.984  0.000  0.000  0.984
 
band     2 # energy  -36.10208239 # occ.  2.00000000
 
ion      s      p      d    tot
    1  0.493  0.000  0.000  0.493
    2  0.493  0.000  0.000  0.493
    3  0.000  0.000  0.000  0.000
    4  0.000  0.000  0.000  0.000
    5  0.000  0.000  0.000  0.000
    6  0.000  0.000  0.000  0.000
    7  0.000  0.000  0.000  0.000
    8  0.000  0.000  0.000  0.000
tot    0.985  0.000  0.000  0.985
 
band     3 # energy  -17.23694190 # occ.  2.00000000
 
ion      s      p      d    tot
    1  0.000  0.474  0.000  0.474
    2  0.000  0.474  0.000  0.474
    3  0.000  0.000  0.000  0.000
    4  0.000  0.000  0.000  0.000
    5  0.000  0.000  0.000  0.000
    6  0.000  0.000  0.000  0.000
    7  0.000  0.000  0.000  0.000
    8  0.000  0.000  0.000  0.000
tot    0.002  0.949  0.000  0.951
 
band     4 # energy  -17.23562733 # occ.  2.00000000
 
ion      s      p      d    tot
    1  0.000  0.474  0.000  0.474
    2  0.000  0.474  0.000  0.474
    3  0.000  0.000  0.000  0.000
    4  0.000  0.000  0.000  0.000
    5  0.000  0.000  0.000  0.000
    6  0.000  0.000  0.000  0.000
    7  0.000  0.000  0.000  0.000
    8  0.000  0.000  0.000  0.000
tot    0.002  0.950  0.000  0.951
 
band     5 # energy  -17.19663749 # occ.  2.00000000
 
ion      s      p      d    tot
    1  0.000  0.478  0.000  0.478
    2  0.000  0.478  0.000  0.478
    3  0.000  0.000  0.000  0.000
    4  0.000  0.000  0.000  0.000
    5  0.000  0.000  0.000  0.000
    6  0.000  0.000  0.000  0.000
    7  0.000  0.000  0.000  0.000
    8  0.000  0.000  0.000  0.000
tot    0.000  0.958  0.000  0.958
 
band     6 # energy  -17.16508443 # occ.  2.00000000
 
ion      s      p      d    tot
    1  0.000  0.480  0.000  0.480
    2  0.000  0.480  0.000  0.480
    3  0.000  0.000  0.000  0.000
    4  0.000  0.000  0.000  0.000
    5  0.000  0.000  0.000  0.000
    6  0.000  0.000  0.000  0.000
    7  0.000  0.000  0.000  0.000
    8  0.000  0.000  0.000  0.000
tot    0.000  0.961  0.000  0.961
 
band     7 # energy  -17.13555293 # occ.  2.00000000
 
ion      s      p      d    tot
    1  0.000  0.480  0.000  0.480
    2  0.000  0.480  0.000  0.480
    3  0.000  0.000  0.000  0.000
    4  0.000  0.000  0.000  0.000
    5  0.000  0.000  0.000  0.000
    6  0.000  0.000  0.000  0.000
    7  0.000  0.000  0.000  0.000
    8  0.000  0.000  0.000  0.000
tot    0.000  0.960  0.000  0.960
 
band     8 # energy  -17.13420084 # occ.  2.00000000
 
ion      s      p      d    tot
    1  0.000  0.480  0.000  0.480
    2  0.000  0.480  0.000  0.480
    3  0.000  0.000  0.000  0.000
    4  0.000  0.000  0.000  0.000
    5  0.000  0.000  0.000  0.000
    6  0.000  0.000  0.000  0.000
    7  0.000  0.000  0.000  0.000
    8  0.000  0.000  0.000  0.000
tot    0.000  0.960  0.000  0.960
 
band     9 # energy   -5.47221126 # occ.  2.00000000
 
ion      s      p      d    tot
    1  0.013  0.001  0.001  0.015
    2  0.013  0.001  0.001  0.015
    3  0.088  0.002  0.016  0.106
    4  0.088  0.002  0.016  0.106
    5  0.084  0.001  0.000  0.085
    6  0.084  0.001  0.000  0.085
    7  0.084  0.001  0.000  0.085
    8  0.084  0.001  0.000  0.085
tot    0.539  0.008  0.034  0.581
 
band    10 # energy   -2.50405491 # occ.  2.00000000
 
ion      s      p      d    tot
    1  0.005  0.010  0.003  0.018
    2  0.005  0.010  0.003  0.018
    3  0.045  0.039  0.021  0.105
    4  0.045  0.039  0.021  0.105
    5  0.076  0.017  0.000  0.093
    6  0.076  0.017  0.000  0.093
    7  0.076  0.017  0.000  0.093
    8  0.076  0.017  0.000  0.093
tot    0.407  0.165  0.048  0.621
 
band    11 # energy   -1.58414065 # occ.  2.00000000
 
ion      s      p      d    tot
    1  0.000  0.015  0.001  0.016
    2  0.000  0.015  0.001  0.016
    3  0.000  0.069  0.024  0.093
    4  0.000  0.069  0.024  0.093
    5  0.108  0.001  0.000  0.109
    6  0.108  0.001  0.000  0.109
    7  0.108  0.001  0.000  0.109
    8  0.108  0.001  0.000  0.109
tot    0.433  0.170  0.050  0.653
 
band    12 # energy   -1.56492625 # occ.  2.00000000
 
ion      s      p      d    tot
    1  0.000  0.001  0.010  0.011
    2  0.000  0.001  0.010  0.011
    3  0.000  0.004  0.215  0.219
    4  0.000  0.004  0.215  0.219
    5  0.092  0.001  0.000  0.092
    6  0.092  0.001  0.000  0.092
    7  0.092  0.001  0.000  0.092
    8  0.092  0.001  0.000  0.092
tot    0.368  0.013  0.448  0.829
 
band    13 # energy   -0.99097596 # occ.  2.00000000
 
ion      s      p      d    tot
    1  0.009  0.002  0.011  0.021
    2  0.009  0.002  0.011  0.021
    3  0.046  0.000  0.122  0.168
    4  0.046  0.000  0.122  0.168
    5  0.002  0.058  0.000  0.061
    6  0.002  0.058  0.000  0.061
    7  0.002  0.058  0.000  0.061
    8  0.002  0.058  0.000  0.061
tot    0.119  0.237  0.265  0.621
 
band    14 # energy    0.02295931 # occ.  2.00000000
 
ion      s      p      d    tot
    1  0.000  0.004  0.010  0.014
    2  0.000  0.004  0.010  0.014
    3  0.077  0.039  0.063  0.180
    4  0.077  0.039  0.063  0.180
    5  0.029  0.054  0.000  0.083
    6  0.029  0.054  0.000  0.083
    7  0.029  0.054  0.000  0.083
    8  0.029  0.054  0.000  0.083
tot    0.271  0.302  0.146  0.719
 
band    15 # energy    0.61792404 # occ.  2.00000000
 
ion      s      p      d    tot
    1  0.000  0.001  0.000  0.001
    2  0.000  0.001  0.000  0.001
    3  0.000  0.009  0.375  0.384
    4  0.000  0.009  0.375  0.384
    5  0.002  0.053  0.000  0.055
    6  0.002  0.053  0.000  0.055
    7  0.002  0.053  0.000  0.055
    8  0.002  0.053  0.000  0.055
tot    0.007  0.230  0.751  0.989
 
band    16 # energy    1.47366288 # occ.  2.00000000
 
ion      s      p      d    tot
    1  0.000  0.001  0.023  0.024
    2  0.000  0.001  0.023  0.024
    3  0.000  0.001  0.276  0.277
    4  0.000  0.001  0.276  0.277
    5  0.000  0.038  0.000  0.038
    6  0.000  0.038  0.000  0.038
    7  0.000  0.038  0.000  0.038
    8  0.000  0.038  0.000  0.038
tot    0.000  0.155  0.597  0.753
 
band    17 # energy    1.49225584 # occ.  2.00000000
 
ion      s      p      d    tot
    1  0.000  0.000  0.024  0.024
    2  0.000  0.000  0.024  0.024
    3  0.000  0.000  0.283  0.283
    4  0.000  0.000  0.283  0.283
    5  0.000  0.036  0.000  0.036
    6  0.000  0.036  0.000  0.036
    7  0.000  0.036  0.000  0.036
    8  0.000  0.036  0.000  0.036
tot    0.000  0.146  0.613  0.760
 
band    18 # energy    1.82137881 # occ.  2.00000000
 
ion      s      p      d    tot
    1  0.001  0.006  0.002  0.009
    2  0.001  0.006  0.002  0.009
    3  0.006  0.046  0.201  0.252
    4  0.006  0.046  0.201  0.252
    5  0.000  0.055  0.000  0.055
    6  0.000  0.055  0.000  0.055
    7  0.000  0.055  0.000  0.055
    8  0.000  0.055  0.000  0.055
tot    0.014  0.322  0.405  0.740
 
band    19 # energy    2.18565573 # occ.  2.00000000
 
ion      s      p      d    tot
    1  0.004  0.001  0.012  0.017
    2  0.004  0.001  0.012  0.017
    3  0.005  0.001  0.326  0.332
    4  0.005  0.001  0.326  0.332
    5  0.002  0.004  0.000  0.006
    6  0.002  0.004  0.000  0.006
    7  0.002  0.004  0.000  0.006
    8  0.002  0.004  0.000  0.006
tot    0.027  0.018  0.676  0.721
 
band    20 # energy    2.32984224 # occ.  2.00000000
 
ion      s      p      d    tot
    1  0.000  0.008  0.001  0.009
    2  0.000  0.008  0.001  0.009
    3  0.000  0.091  0.099  0.191
    4  0.000  0.091  0.099  0.191
    5  0.001  0.079  0.000  0.080
    6  0.001  0.079  0.000  0.080
    7  0.001  0.079  0.000  0.080
    8  0.001  0.079  0.000  0.080
tot    0.006  0.513  0.202  0.720
 
band    21 # energy    2.52450885 # occ.  2.00000000
 
ion      s      p      d    tot
    1  0.000  0.000  0.014  0.014
    2  0.000  0.000  0.014  0.014
    3  0.013  0.000  0.356  0.369
    4  0.013  0.000  0.356  0.369
    5  0.000  0.001  0.000  0.002
    6  0.000  0.001  0.000  0.002
    7  0.000  0.001  0.000  0.002
    8  0.000  0.001  0.000  0.002
tot    0.026  0.006  0.739  0.772
 
band    22 # energy    2.59149779 # occ.  2.00000000
 
ion      s      p      d    tot
    1  0.000  0.004  0.004  0.008
    2  0.000  0.004  0.004  0.008
    3  0.003  0.019  0.336  0.358
    4  0.003  0.019  0.336  0.358
    5  0.000  0.022  0.000  0.022
    6  0.000  0.022  0.000  0.022
    7  0.000  0.022  0.000  0.022
    8  0.000  0.022  0.000  0.022
tot    0.008  0.133  0.681  0.822
 
band    23 # energy    2.78327545 # occ.  2.00000000
 
ion      s      p      d    tot
    1  0.001  0.005  0.005  0.010
    2  0.001  0.005  0.005  0.010
    3  0.004  0.047  0.247  0.298
    4  0.004  0.047  0.247  0.298
    5  0.000  0.041  0.000  0.041
    6  0.000  0.041  0.000  0.041
    7  0.000  0.041  0.000  0.041
    8  0.000  0.041  0.000  0.041
tot    0.009  0.266  0.503  0.779
 
band    24 # energy    2.80794024 # occ.  2.00000000
 
ion      s      p      d    tot
    1  0.000  0.001  0.006  0.008
    2  0.000  0.001  0.006  0.008
    3  0.000  0.013  0.382  0.396
    4  0.000  0.013  0.382  0.396
    5  0.000  0.014  0.000  0.014
    6  0.000  0.014  0.000  0.014
    7  0.000  0.014  0.000  0.014
    8  0.000  0.014  0.000  0.014
tot    0.001  0.085  0.777  0.863
 
band    25 # energy    3.62097508 # occ.  0.00000000
 
ion      s      p      d    tot
    1  0.000  0.013  0.014  0.027
    2  0.000  0.013  0.014  0.027
    3  0.001  0.039  0.112  0.152
    4  0.001  0.039  0.112  0.152
    5  0.000  0.060  0.000  0.060
    6  0.000  0.060  0.000  0.060
    7  0.000  0.060  0.000  0.060
    8  0.000  0.060  0.000  0.060
tot    0.002  0.345  0.252  0.599
 
band    26 # energy    4.80484492 # occ.  0.00000000
 
ion      s      p      d    tot
    1  0.008  0.001  0.033  0.041
    2  0.008  0.001  0.033  0.041
    3  0.000  0.001  0.328  0.329
    4  0.000  0.001  0.328  0.329
    5  0.002  0.013  0.000  0.015
    6  0.002  0.013  0.000  0.015
    7  0.002  0.013  0.000  0.015
    8  0.002  0.013  0.000  0.015
tot    0.022  0.055  0.722  0.799
 
band    27 # energy    5.59065593 # occ.  0.00000000
 
ion      s      p      d    tot
    1  0.000  0.000  0.098  0.099
    2  0.000  0.000  0.098  0.099
    3  0.000  0.003  0.168  0.171
    4  0.000  0.003  0.168  0.171
    5  0.011  0.020  0.000  0.031
    6  0.011  0.020  0.000  0.031
    7  0.011  0.020  0.000  0.031
    8  0.011  0.020  0.000  0.031
tot    0.043  0.088  0.533  0.665
 
band    28 # energy    5.92370110 # occ.  0.00000000
 
ion      s      p      d    tot
    1  0.000  0.000  0.086  0.086
    2  0.000  0.000  0.086  0.086
    3  0.000  0.009  0.204  0.213
    4  0.000  0.009  0.204  0.213
    5  0.000  0.038  0.000  0.038
    6  0.000  0.038  0.000  0.038
    7  0.000  0.038  0.000  0.038
    8  0.000  0.038  0.000  0.038
tot    0.000  0.171  0.580  0.751
 
band    29 # energy    6.19854599 # occ.  0.00000000
 
ion      s      p      d    tot
    1  0.000  0.000  0.095  0.095
    2  0.000  0.000  0.095  0.095
    3  0.000  0.000  0.206  0.206
    4  0.000  0.000  0.206  0.206
    5  0.000  0.041  0.000  0.041
    6  0.000  0.041  0.000  0.041
    7  0.000  0.041  0.000  0.041
    8  0.000  0.041  0.000  0.041
tot    0.000  0.164  0.603  0.767
 
band    30 # energy    6.25904813 # occ.  0.00000000
 
ion      s      p      d    tot
    1  0.001  0.000  0.165  0.166
    2  0.001  0.000  0.165  0.166
    3  0.000  0.012  0.098  0.110
    4  0.000  0.012  0.098  0.110
    5  0.000  0.007  0.000  0.008
    6  0.000  0.007  0.000  0.008
    7  0.000  0.007  0.000  0.008
    8  0.000  0.007  0.000  0.008
tot    0.003  0.054  0.526  0.583
 

 k-point     3 :    0.33333333 0.00000000 0.00000000     weight = 0.01388889

band     1 # energy  -36.11293808 # occ.  2.00000000
 
ion      s      p      d    tot
    1  0.492  0.000  0.000  0.492
    2  0.492  0.000  0.000  0.492
    3  0.000  0.000  0.000  0.000
    4  0.000  0.000  0.000  0.000
    5  0.000  0.000  0.000  0.000
    6  0.000  0.000  0.000  0.000
    7  0.000  0.000  0.000  0.000
    8  0.000  0.000  0.000  0.000
tot    0.985  0.000  0.000  0.985
 
band     2 # energy  -36.10496491 # occ.  2.00000000
 
ion      s      p      d    tot
    1  0.493  0.000  0.000  0.493
    2  0.493  0.000  0.000  0.493
    3  0.000  0.000  0.000  0.000
    4  0.000  0.000  0.000  0.000
    5  0.000  0.000  0.000  0.000
    6  0.000  0.000  0.000  0.000
    7  0.000  0.000  0.000  0.000
    8  0.000  0.000  0.000  0.000
tot    0.985  0.000  0.000  0.985
 
band     3 # energy  -17.21829438 # occ.  2.00000000
 
ion      s      p      d    tot
    1  0.000  0.475  0.000  0.475
    2  0.000  0.475  0.000  0.475
    3  0.000  0.000  0.000  0.000
    4  0.000  0.000  0.000  0.000
    5  0.000  0.000  0.000  0.000
    6  0.000  0.000  0.000  0.000
    7  0.000  0.000  0.000  0.000
    8  0.000  0.000  0.000  0.000
tot    0.002  0.951  0.000  0.952
 
band     4 # energy  -17.21436670 # occ.  2.00000000
 
ion      s      p      d    tot
    1  0.000  0.476  0.000  0.476
    2  0.000  0.476  0.000  0.476
    3  0.000  0.000  0.000  0.000
    4  0.000  0.000  0.000  0.000
    5  0.000  0.000  0.000  0.000
    6  0.000  0.000  0.000  0.000
    7  0.000  0.000  0.000  0.000
    8  0.000  0.000  0.000  0.000
tot    0.001  0.952  0.000  0.953
 
band     5 # energy  -17.19009770 # occ.  2.00000000
 
ion      s      p      d    tot
    1  0.000  0.479  0.000  0.479
    2  0.000  0.479  0.000  0.479
    3  0.000  0.000  0.000  0.000
    4  0.000  0.000  0.000  0.000
    5  0.000  0.000  0.000  0.000
    6  0.000  0.000  0.000  0.000
    7  0.000  0.000  0.000  0.000
    8  0.000  0.000  0.000  0.000
tot    0.000  0.958  0.000  0.959
 
band     6 # energy  -17.17188904 # occ.  2.00000000
 
ion      s      p      d    tot
    1  0.000  0.480  0.000  0.480
    2  0.000  0.480  0.000  0.480
    3  0.000  0.000  0.000  0.000
    4  0.000  0.000  0.000  0.000
    5  0.000  0.000  0.000  0.000
    6  0.000  0.000  0.000  0.000
    7  0.000  0.000  0.000  0.000
    8  0.000  0.000  0.000  0.000
tot    0.000  0.960  0.000  0.960
 
band     7 # energy  -17.15981988 # occ.  2.00000000
 
ion      s      p      d    tot
    1  0.000  0.478  0.000  0.478
    2  0.000  0.478  0.000  0.478
    3  0.000  0.000  0.000  0.000
    4  0.000  0.000  0.000  0.000
    5  0.000  0.000  0.000  0.000
    6  0.000  0.000  0.000  0.000
    7  0.000  0.000  0.000  0.000
    8  0.000  0.000  0.000  0.000
tot    0.001  0.957  0.000  0.958
 
band     8 # energy  -17.15580064 # occ.  2.00000000
 
ion      s      p      d    tot
    1  0.000  0.479  0.000  0.479
    2  0.000  0.479  0.000  0.479
    3  0.000  0.000  0.000  0.000
    4  0.000  0.000  0.000  0.000
    5  0.000  0.000  0.000  0.000
    6  0.000  0.000  0.000  0.000
    7  0.000  0.000  0.000  0.000
    8  0.000  0.000  0.000  0.000
tot    0.000  0.958  0.000  0.958
 
band     9 # energy   -5.06306750 # occ.  2.00000000
 
ion      s      p      d    tot
    1  0.012  0.003  0.001  0.016
    2  0.012  0.003  0.001  0.016
    3  0.083  0.007  0.016  0.106
    4  0.083  0.007  0.016  0.106
    5  0.083  0.003  0.000  0.086
    6  0.083  0.003  0.000  0.086
    7  0.083  0.003  0.000  0.086
    8  0.083  0.003  0.000  0.086
tot    0.522  0.032  0.034  0.588
 
band    10 # energy   -3.53773538 # occ.  2.00000000
 
ion      s      p      d    tot
    1  0.008  0.008  0.002  0.018
    2  0.008  0.008  0.002  0.018
    3  0.064  0.025  0.017  0.107
    4  0.064  0.025  0.017  0.107
    5  0.078  0.012  0.000  0.090
    6  0.078  0.012  0.000  0.090
    7  0.078  0.012  0.000  0.090
    8  0.078  0.012  0.000  0.090
tot    0.456  0.115  0.039  0.610
 
band    11 # energy   -1.61780960 # occ.  2.00000000
 
ion      s      p      d    tot
    1  0.000  0.012  0.002  0.014
    2  0.000  0.012  0.002  0.014
    3  0.000  0.051  0.076  0.127
    4  0.000  0.051  0.076  0.127
    5  0.103  0.002  0.000  0.104
    6  0.103  0.002  0.000  0.104
    7  0.103  0.002  0.000  0.104
    8  0.103  0.002  0.000  0.104
tot    0.411  0.132  0.158  0.701
 
band    12 # energy   -1.60285644 # occ.  2.00000000
 
ion      s      p      d    tot
    1  0.000  0.004  0.008  0.011
    2  0.000  0.004  0.008  0.011
    3  0.000  0.016  0.180  0.196
    4  0.000  0.016  0.180  0.196
    5  0.094  0.002  0.000  0.095
    6  0.094  0.002  0.000  0.095
    7  0.094  0.002  0.000  0.095
    8  0.094  0.002  0.000  0.095
tot    0.376  0.045  0.376  0.797
 
band    13 # energy   -0.55373396 # occ.  2.00000000
 
ion      s      p      d    tot
    1  0.007  0.003  0.010  0.020
    2  0.007  0.003  0.010  0.020
    3  0.045  0.006  0.125  0.177
    4  0.045  0.006  0.125  0.177
    5  0.001  0.060  0.000  0.061
    6  0.001  0.060  0.000  0.061
    7  0.001  0.060  0.000  0.061
    8  0.001  0.060  0.000  0.061
tot    0.108  0.260  0.269  0.638
 
band    14 # energy    0.95422694 # occ.  2.00000000
 
ion      s      p      d    tot
    1  0.001  0.004  0.002  0.006
    2  0.001  0.004  0.002  0.006
    3  0.006  0.031  0.270  0.307
    4  0.006  0.031  0.270  0.307
    5  0.003  0.056  0.000  0.059
    6  0.003  0.056  0.000  0.059
    7  0.003  0.056  0.000  0.059
    8  0.003  0.056  0.000  0.059
tot    0.026  0.292  0.544  0.863
 
band    15 # energy    0.96778118 # occ.  2.00000000
 
ion      s      p      d    tot
    1  0.002  0.005  0.004  0.011
    2  0.002  0.005  0.004  0.011
    3  0.015  0.033  0.198  0.245
    4  0.015  0.033  0.198  0.245
    5  0.001  0.059  0.000  0.060
    6  0.001  0.059  0.000  0.060
    7  0.001  0.059  0.000  0.060
    8  0.001  0.059  0.000  0.060
tot    0.040  0.311  0.403  0.755
 