PROCAR new format
# of k-points:   24         # of bands:   25         # of ions:    6

 k-point     1 :    0.00000000 0.00000000 0.00000000     weight = 0.00411523

band     1 # energy  -35.92057476 # occ.  2.00000000
 
ion      s      p      d    tot
    1  0.491  0.000  0.000  0.491
    2  0.491  0.000  0.000  0.491
    3  0.000  0.000  0.000  0.000
    4  0.000  0.000  0.000  0.000
    5  0.000  0.000  0.000  0.000
    6  0.000  0.000  0.000  0.000
tot    0.982  0.000  0.000  0.982
 
band     2 # energy  -35.91950036 # occ.  2.00000000
 
ion      s      p      d    tot
    1  0.491  0.000  0.000  0.491
    2  0.492  0.000  0.000  0.492
    3  0.000  0.000  0.000  0.000
    4  0.000  0.000  0.000  0.000
    5  0.000  0.000  0.000  0.000
    6  0.000  0.000  0.000  0.000
tot    0.982  0.000  0.000  0.982
 
band     3 # energy  -16.97563339 # occ.  2.00000000
 
ion      s      p      d    tot
    1  0.000  0.470  0.000  0.470
    2  0.000  0.470  0.000  0.470
    3  0.002  0.000  0.000  0.002
    4  0.002  0.000  0.000  0.002
    5  0.001  0.000  0.000  0.001
    6  0.001  0.000  0.000  0.001
tot    0.006  0.939  0.000  0.946
 
band     4 # energy  -16.93340399 # occ.  2.00000000
 
ion      s      p      d    tot
    1  0.000  0.473  0.000  0.473
    2  0.000  0.474  0.000  0.474
    3  0.000  0.001  0.000  0.001
    4  0.000  0.001  0.000  0.001
    5  0.000  0.001  0.000  0.001
    6  0.000  0.001  0.000  0.001
tot    0.000  0.950  0.000  0.950
 
band     5 # energy  -16.82278307 # occ.  2.00000000
 
ion      s      p      d    tot
    1  0.000  0.485  0.000  0.485
    2  0.000  0.485  0.000  0.485
    3  0.000  0.000  0.000  0.000
    4  0.000  0.000  0.000  0.000
    5  0.000  0.000  0.000  0.000
    6  0.000  0.000  0.000  0.000
tot    0.000  0.971  0.000  0.971
 
band     6 # energy  -16.82276031 # occ.  2.00000000
 
ion      s      p      d    tot
    1  0.000  0.485  0.000  0.485
    2  0.000  0.485  0.000  0.485
    3  0.000  0.000  0.000  0.000
    4  0.000  0.000  0.000  0.000
    5  0.000  0.000  0.000  0.000
    6  0.000  0.000  0.000  0.000
tot    0.000  0.971  0.000  0.971
 
band     7 # energy  -16.82073054 # occ.  2.00000000
 
ion      s      p      d    tot
    1  0.000  0.485  0.000  0.485
    2  0.000  0.486  0.000  0.486
    3  0.000  0.000  0.000  0.000
    4  0.000  0.000  0.000  0.000
    5  0.000  0.000  0.000  0.000
    6  0.000  0.000  0.000  0.000
tot    0.000  0.971  0.000  0.971
 
band     8 # energy  -16.82070777 # occ.  2.00000000
 
ion      s      p      d    tot
    1  0.000  0.485  0.000  0.485
    2  0.000  0.486  0.000  0.486
    3  0.000  0.000  0.000  0.000
    4  0.000  0.000  0.000  0.000
    5  0.000  0.000  0.000  0.000
    6  0.000  0.000  0.000  0.000
tot    0.000  0.971  0.000  0.971
 
band     9 # energy   -4.25745481 # occ.  2.00000000
 
ion      s      p      d    tot
    1  0.015  0.000  0.002  0.018
    2  0.015  0.000  0.002  0.018
    3  0.115  0.000  0.013  0.129
    4  0.115  0.000  0.013  0.129
    5  0.145  0.000  0.000  0.145
    6  0.145  0.000  0.000  0.145
tot    0.552  0.002  0.030  0.584
 
band    10 # energy   -3.51624670 # occ.  2.00000000
 
ion      s      p      d    tot
    1  0.002  0.020  0.000  0.022
    2  0.002  0.020  0.000  0.022
    3  0.118  0.001  0.022  0.141
    4  0.118  0.001  0.022  0.141
    5  0.164  0.000  0.000  0.164
    6  0.164  0.000  0.000  0.164
tot    0.568  0.042  0.045  0.655
 
band    11 # energy    0.42432671 # occ.  2.00000000
 
ion      s      p      d    tot
    1  0.054  0.000  0.002  0.057
    2  0.054  0.000  0.002  0.057
    3  0.003  0.043  0.006  0.052
    4  0.003  0.043  0.006  0.052
    5  0.000  0.056  0.000  0.056
    6  0.000  0.056  0.000  0.056
tot    0.116  0.199  0.015  0.330
 
band    12 # energy    1.54894629 # occ.  2.00000000
 
ion      s      p      d    tot
    1  0.000  0.000  0.007  0.007
    2  0.000  0.000  0.007  0.007
    3  0.000  0.007  0.340  0.347
    4  0.000  0.007  0.340  0.347
    5  0.000  0.090  0.000  0.090
    6  0.000  0.090  0.000  0.090
tot    0.000  0.193  0.693  0.886
 
band    13 # energy    1.54895545 # occ.  2.00000000
 
ion      s      p      d    tot
    1  0.000  0.000  0.007  0.007
    2  0.000  0.000  0.007  0.007
    3  0.000  0.007  0.340  0.347
    4  0.000  0.007  0.340  0.347
    5  0.000  0.090  0.000  0.090
    6  0.000  0.090  0.000  0.090
tot    0.000  0.193  0.693  0.886
 
band    14 # energy    1.60890075 # occ.  2.00000000
 
ion      s      p      d    tot
    1  0.000  0.001  0.003  0.003
    2  0.000  0.001  0.003  0.003
    3  0.000  0.006  0.346  0.352
    4  0.000  0.006  0.346  0.352
    5  0.000  0.090  0.000  0.090
    6  0.000  0.090  0.000  0.090
tot    0.000  0.194  0.697  0.891
 
band    15 # energy    1.60890911 # occ.  2.00000000
 
ion      s      p      d    tot
    1  0.000  0.001  0.003  0.003
    2  0.000  0.001  0.003  0.003
    3  0.000  0.006  0.346  0.352
    4  0.000  0.006  0.346  0.352
    5  0.000  0.090  0.000  0.090
    6  0.000  0.090  0.000  0.090
tot    0.000  0.194  0.697  0.891
 
band    16 # energy    1.76473021 # occ.  2.00000000
 
ion      s      p      d    tot
    1  0.026  0.002  0.030  0.058
    2  0.026  0.002  0.030  0.058
    3  0.000  0.006  0.179  0.185
    4  0.000  0.006  0.179  0.185
    5  0.007  0.038  0.000  0.045
    6  0.007  0.038  0.000  0.045
tot    0.065  0.093  0.417  0.575
 
band    17 # energy    3.53661178 # occ.  2.00000000
 
ion      s      p      d    tot
    1  0.002  0.031  0.001  0.035
    2  0.002  0.031  0.001  0.035
    3  0.004  0.055  0.058  0.118
    4  0.004  0.055  0.058  0.118
    5  0.014  0.079  0.000  0.092
    6  0.014  0.079  0.000  0.092
tot    0.041  0.330  0.119  0.489
 
band    18 # energy    3.76160643 # occ.  2.00000000
 
ion      s      p      d    tot
    1  0.001  0.007  0.000  0.007
    2  0.001  0.007  0.000  0.007
    3  0.014  0.001  0.398  0.413
    4  0.014  0.001  0.398  0.413
    5  0.001  0.002  0.000  0.003
    6  0.001  0.002  0.000  0.003
tot    0.030  0.019  0.797  0.846
 
band    19 # energy    3.88449586 # occ.  2.00000000
 
ion      s      p      d    tot
    1  0.000  0.001  0.012  0.013
    2  0.000  0.001  0.012  0.013
    3  0.000  0.000  0.444  0.444
    4  0.000  0.000  0.444  0.445
    5  0.000  0.000  0.000  0.000
    6  0.000  0.000  0.000  0.000
tot    0.000  0.002  0.913  0.915
 
band    20 # energy    3.88451079 # occ.  2.00000000
 
ion      s      p      d    tot
    1  0.000  0.001  0.012  0.013
    2  0.000  0.001  0.012  0.013
    3  0.000  0.000  0.444  0.444
    4  0.000  0.000  0.444  0.445
    5  0.000  0.000  0.000  0.000
    6  0.000  0.000  0.000  0.000
tot    0.000  0.002  0.913  0.915
 
band    21 # energy    3.93232872 # occ.  2.00000000
 
ion      s      p      d    tot
    1  0.000  0.000  0.008  0.008
    2  0.000  0.000  0.008  0.008
    3  0.000  0.000  0.455  0.456
    4  0.000  0.000  0.455  0.455
    5  0.000  0.001  0.000  0.001
    6  0.000  0.001  0.000  0.001
tot    0.000  0.002  0.926  0.928
 
band    22 # energy    3.93234776 # occ.  2.00000000
 
ion      s      p      d    tot
    1  0.000  0.000  0.008  0.008
    2  0.000  0.000  0.008  0.008
    3  0.000  0.000  0.455  0.456
    4  0.000  0.000  0.455  0.455
    5  0.000  0.001  0.000  0.001
    6  0.000  0.001  0.000  0.001
tot    0.000  0.002  0.926  0.928
 
band    23 # energy    6.25254661 # occ.  0.00000000
 
ion      s      p      d    tot
    1  0.014  0.004  0.100  0.119
    2  0.014  0.004  0.101  0.119
    3  0.008  0.005  0.207  0.221
    4  0.008  0.005  0.207  0.221
    5  0.008  0.000  0.000  0.008
    6  0.008  0.000  0.000  0.008
tot    0.062  0.018  0.615  0.695
 
band    24 # energy    6.28141060 # occ.  0.00000000
 
ion      s      p      d    tot
    1  0.003  0.000  0.215  0.218
    2  0.003  0.000  0.215  0.218
    3  0.000  0.007  0.001  0.007
    4  0.000  0.007  0.001  0.007
    5  0.000  0.058  0.000  0.058
    6  0.000  0.058  0.000  0.058
tot    0.006  0.129  0.432  0.567
 
band    25 # energy    7.62593106 # occ.  0.00000000
 
ion      s      p      d    tot
    1  0.000  0.000  0.276  0.276
    2  0.000  0.000  0.276  0.276
    3  0.000  0.020  0.033  0.053
    4  0.000  0.020  0.033  0.053
    5  0.000  0.015  0.000  0.015
    6  0.000  0.015  0.000  0.015
tot    0.000  0.071  0.617  0.688
 

 k-point     2 :    0.11111111 0.00000000 0.00000000     weight = 0.02469136

band     1 # energy  -35.91311304 # occ.  2.00000000
 
ion      s      p      d    tot
    1  0.492  0.000  0.000  0.492
    2  0.491  0.000  0.000  0.491
    3  0.000  0.000  0.000  0.000
    4  0.000  0.000  0.000  0.000
    5  0.000  0.000  0.000  0.000
    6  0.000  0.000  0.000  0.000
tot    0.983  0.000  0.000  0.983
 
band     2 # energy  -35.91215480 # occ.  2.00000000
 
ion      s      p      d    tot
    1  0.491  0.000  0.000  0.491
    2  0.492  0.000  0.000  0.492
    3  0.000  0.000  0.000  0.000
    4  0.000  0.000  0.000  0.000
    5  0.000  0.000  0.000  0.000
    6  0.000  0.000  0.000  0.000
tot    0.983  0.000  0.000  0.983
 
band     3 # energy  -16.96288136 # occ.  2.00000000
 
ion      s      p      d    tot
    1  0.000  0.470  0.000  0.470
    2  0.000  0.470  0.000  0.470
    3  0.002  0.000  0.000  0.002
    4  0.002  0.000  0.000  0.002
    5  0.001  0.000  0.000  0.001
    6  0.001  0.000  0.000  0.001
tot    0.006  0.941  0.000  0.947
 
band     4 # energy  -16.92454431 # occ.  2.00000000
 
ion      s      p      d    tot
    1  0.000  0.474  0.000  0.474
    2  0.000  0.474  0.000  0.474
    3  0.000  0.001  0.000  0.001
    4  0.000  0.001  0.000  0.001
    5  0.000  0.001  0.000  0.001
    6  0.000  0.001  0.000  0.001
tot    0.000  0.951  0.000  0.951
 
band     5 # energy  -16.88127944 # occ.  2.00000000
 
ion      s      p      d    tot
    1  0.000  0.483  0.000  0.483
    2  0.000  0.483  0.000  0.483
    3  0.000  0.000  0.000  0.000
    4  0.000  0.000  0.000  0.000
    5  0.000  0.000  0.000  0.000
    6  0.000  0.000  0.000  0.000
tot    0.000  0.966  0.000  0.967
 
band     6 # energy  -16.88011404 # occ.  2.00000000
 
ion      s      p      d    tot
    1  0.000  0.483  0.000  0.483
    2  0.000  0.483  0.000  0.483
    3  0.000  0.000  0.000  0.000
    4  0.000  0.000  0.000  0.000
    5  0.000  0.000  0.000  0.000
    6  0.000  0.000  0.000  0.000
tot    0.000  0.966  0.000  0.967
 
band     7 # energy  -16.83566774 # occ.  2.00000000
 
ion      s      p      d    tot
    1  0.000  0.485  0.000  0.485
    2  0.000  0.485  0.000  0.485
    3  0.000  0.000  0.000  0.000
    4  0.000  0.000  0.000  0.000
    5  0.000  0.000  0.000  0.000
    6  0.000  0.000  0.000  0.000
tot    0.000  0.970  0.000  0.970
 
band     8 # energy  -16.83375712 # occ.  2.00000000
 
ion      s      p      d    tot
    1  0.000  0.485  0.000  0.485
    2  0.000  0.485  0.000  0.485
    3  0.000  0.000  0.000  0.000
    4  0.000  0.000  0.000  0.000
    5  0.000  0.000  0.000  0.000
    6  0.000  0.000  0.000  0.000
tot    0.000  0.970  0.000  0.970
 
band     9 # energy   -4.06041791 # occ.  2.00000000
 
ion      s      p      d    tot
    1  0.015  0.001  0.002  0.018
    2  0.015  0.001  0.002  0.018
    3  0.111  0.004  0.013  0.128
    4  0.111  0.004  0.013  0.128
    5  0.147  0.001  0.000  0.148
    6  0.147  0.001  0.000  0.148
tot    0.545  0.014  0.032  0.590
 
band    10 # energy   -3.36271941 # occ.  2.00000000
 
ion      s      p      d    tot
    1  0.002  0.019  0.001  0.022
    2  0.002  0.019  0.001  0.022
    3  0.113  0.005  0.023  0.140
    4  0.113  0.005  0.023  0.140
    5  0.165  0.001  0.000  0.166
    6  0.165  0.001  0.000  0.166
tot    0.559  0.051  0.047  0.657
 
band    11 # energy    0.60004853 # occ.  2.00000000
 
ion      s      p      d    tot
    1  0.050  0.003  0.001  0.055
    2  0.050  0.003  0.001  0.055
    3  0.003  0.040  0.019  0.063
    4  0.003  0.040  0.019  0.063
    5  0.000  0.058  0.000  0.059
    6  0.000  0.058  0.000  0.059
tot    0.107  0.204  0.042  0.353
 
band    12 # energy    1.45192379 # occ.  2.00000000
 
ion      s      p      d    tot
    1  0.001  0.000  0.008  0.008
    2  0.001  0.000  0.008  0.008
    3  0.003  0.008  0.320  0.331
    4  0.003  0.008  0.320  0.331
    5  0.006  0.086  0.000  0.092
    6  0.006  0.086  0.000  0.092
tot    0.018  0.189  0.655  0.862
 
band    13 # energy    1.52427474 # occ.  2.00000000
 
ion      s      p      d    tot
    1  0.001  0.001  0.003  0.005
    2  0.001  0.001  0.003  0.005
    3  0.003  0.008  0.329  0.340
    4  0.003  0.008  0.329  0.339
    5  0.003  0.088  0.000  0.091
    6  0.003  0.088  0.000  0.091
tot    0.012  0.194  0.665  0.872
 
band    14 # energy    1.66504012 # occ.  2.00000000
 
ion      s      p      d    tot
    1  0.000  0.000  0.007  0.007
    2  0.000  0.000  0.007  0.007
    3  0.000  0.009  0.338  0.347
    4  0.000  0.009  0.338  0.347
    5  0.000  0.090  0.000  0.090
    6  0.000  0.090  0.000  0.090
tot    0.000  0.197  0.690  0.887
 
band    15 # energy    1.73013323 # occ.  2.00000000
 
ion      s      p      d    tot
    1  0.000  0.001  0.002  0.003
    2  0.000  0.001  0.002  0.003
    3  0.000  0.008  0.345  0.354
    4  0.000  0.008  0.345  0.354
    5  0.000  0.089  0.000  0.089
    6  0.000  0.089  0.000  0.089
tot    0.000  0.197  0.695  0.893
 
band    16 # energy    1.91328776 # occ.  2.00000000
 
ion      s      p      d    tot
    1  0.022  0.005  0.027  0.055
    2  0.022  0.005  0.027  0.055
    3  0.000  0.007  0.185  0.193
    4  0.000  0.007  0.185  0.193
    5  0.005  0.043  0.000  0.048
    6  0.005  0.043  0.000  0.048
tot    0.055  0.111  0.426  0.591
 
band    17 # energy    3.23097500 # occ.  2.00000000
 
ion      s      p      d    tot
    1  0.003  0.019  0.003  0.025
    2  0.003  0.019  0.003  0.025
    3  0.003  0.027  0.214  0.244
    4  0.003  0.027  0.214  0.244
    5  0.008  0.048  0.000  0.057
    6  0.008  0.048  0.000  0.057
tot    0.028  0.189  0.434  0.652
 
band    18 # energy    3.73212445 # occ.  2.00000000
 
ion      s      p      d    tot
    1  0.000  0.005  0.006  0.011
    2  0.000  0.005  0.006  0.011
    3  0.012  0.000  0.400  0.413
    4  0.012  0.000  0.400  0.413
    5  0.001  0.002  0.000  0.002
    6  0.001  0.002  0.000  0.002
tot    0.026  0.015  0.813  0.853
 
band    19 # energy    3.86035962 # occ.  2.00000000
 
ion      s      p      d    tot
    1  0.002  0.003  0.017  0.022
    2  0.002  0.003  0.017  0.022
    3  0.001  0.003  0.402  0.406
    4  0.001  0.003  0.402  0.406
    5  0.000  0.002  0.000  0.002
    6  0.000  0.002  0.000  0.002
tot    0.008  0.014  0.838  0.860
 
band    20 # energy    3.88107462 # occ.  2.00000000
 
ion      s      p      d    tot
    1  0.000  0.001  0.010  0.011
    2  0.000  0.001  0.010  0.011
    3  0.000  0.000  0.446  0.446
    4  0.000  0.000  0.447  0.447
    5  0.000  0.000  0.000  0.000
    6  0.000  0.000  0.000  0.000
tot    0.000  0.003  0.913  0.916
 
band    21 # energy    3.89586532 # occ.  2.00000000
 
ion      s      p      d    tot
    1  0.000  0.000  0.009  0.009
    2  0.000  0.000  0.009  0.009
    3  0.000  0.000  0.452  0.452
    4  0.000  0.000  0.451  0.452
    5  0.000  0.001  0.000  0.001
    6  0.000  0.001  0.000  0.001
tot    0.000  0.002  0.922  0.924
 
band    22 # energy    4.25171199 # occ.  0.00000160
 
ion      s      p      d    tot
    1  0.000  0.008  0.018  0.026
    2  0.000  0.008  0.018  0.026
    3  0.001  0.024  0.307  0.333
    4  0.001  0.024  0.307  0.333
    5  0.003  0.027  0.000  0.030
    6  0.003  0.027  0.000  0.030
tot    0.008  0.120  0.650  0.778
 
band    23 # energy    6.29245033 # occ.  0.00000000
 
ion      s      p      d    tot
    1  0.014  0.005  0.111  0.130
    2  0.014  0.005  0.111  0.130
    3  0.008  0.007  0.177  0.192
    4  0.008  0.007  0.177  0.192
    5  0.008  0.001  0.000  0.009
    6  0.008  0.001  0.000  0.009
tot    0.060  0.026  0.576  0.662
 
band    24 # energy    6.51431334 # occ.  0.00000000
 
ion      s      p      d    tot
    1  0.002  0.001  0.206  0.209
    2  0.002  0.001  0.206  0.209
    3  0.000  0.006  0.027  0.034
    4  0.000  0.006  0.027  0.034
    5  0.000  0.056  0.000  0.056
    6  0.000  0.056  0.000  0.056
tot    0.005  0.125  0.468  0.598
 
band    25 # energy    7.22580497 # occ.  0.00000000
 
ion      s      p      d    tot
    1  0.000  0.002  0.225  0.227
    2  0.000  0.002  0.225  0.227
    3  0.003  0.025  0.061  0.090
    4  0.003  0.025  0.061  0.090
    5  0.002  0.019  0.000  0.020
    6  0.002  0.019  0.000  0.020
tot    0.010  0.091  0.572  0.673
 

 k-point     3 :    0.22222222-0.00000000 0.00000000     weight = 0.02469136

band     1 # energy  -35.89415712 # occ.  2.00000000
 
ion      s      p      d    tot
    1  0.492  0.000  0.000  0.492
    2  0.491  0.000  0.000  0.491
    3  0.000  0.000  0.000  0.000
    4  0.000  0.000  0.000  0.000
    5  0.000  0.000  0.000  0.000
    6  0.000  0.000  0.000  0.000
tot    0.984  0.000  0.000  0.984
 
band     2 # energy  -35.89349420 # occ.  2.00000000
 
ion      s      p      d    tot
    1  0.491  0.000  0.000  0.491
    2  0.493  0.000  0.000  0.493
    3  0.000  0.000  0.000  0.000
    4  0.000  0.000  0.000  0.000
    5  0.000  0.000  0.000  0.000
    6  0.000  0.000  0.000  0.000
tot    0.984  0.000  0.000  0.984
 
band     3 # energy  -17.03046604 # occ.  2.00000000
 
ion      s      p      d    tot
    1  0.000  0.478  0.000  0.478
    2  0.000  0.477  0.000  0.477
    3  0.000  0.000  0.000  0.000
    4  0.000  0.000  0.000  0.000
    5  0.000  0.000  0.000  0.000
    6  0.000  0.000  0.000  0.000
tot    0.001  0.955  0.000  0.956
 
band     4 # energy  -17.02873883 # occ.  2.00000000
 
ion      s      p      d    tot
    1  0.000  0.477  0.000  0.477
    2  0.000  0.478  0.000  0.478
    3  0.000  0.000  0.000  0.000
    4  0.000  0.000  0.000  0.000
    5  0.000  0.000  0.000  0.000
    6  0.000  0.000  0.000  0.000
tot    0.001  0.956  0.000  0.956
 
band     5 # energy  -16.92789501 # occ.  2.00000000
 
ion      s      p      d    tot
    1  0.000  0.473  0.000  0.473
    2  0.000  0.473  0.000  0.473
    3  0.001  0.000  0.000  0.001
    4  0.001  0.000  0.000  0.001
    5  0.001  0.000  0.000  0.001
    6  0.001  0.000  0.000  0.001
tot    0.004  0.946  0.000  0.950
 
band     6 # energy  -16.89918936 # occ.  2.00000000
 
ion      s      p      d    tot
    1  0.000  0.475  0.000  0.475
    2  0.000  0.475  0.000  0.475
    3  0.000  0.001  0.000  0.001
    4  0.000  0.001  0.000  0.001
    5  0.000  0.001  0.000  0.001
    6  0.000  0.001  0.000  0.001
tot    0.000  0.952  0.000  0.953
 
band     7 # energy  -16.86806190 # occ.  2.00000000
 
ion      s      p      d    tot
    1  0.000  0.484  0.000  0.484
    2  0.000  0.484  0.000  0.484
    3  0.000  0.000  0.000  0.000
    4  0.000  0.000  0.000  0.000
    5  0.000  0.000  0.000  0.000
    6  0.000  0.000  0.000  0.000
tot    0.000  0.968  0.000  0.968
 
band     8 # energy  -16.86655172 # occ.  2.00000000
 
ion      s      p      d    tot
    1  0.000  0.484  0.000  0.484
    2  0.000  0.484  0.000  0.484
    3  0.000  0.000  0.000  0.000
    4  0.000  0.000  0.000  0.000
    5  0.000  0.000  0.000  0.000
    6  0.000  0.000  0.000  0.000
tot    0.000  0.968  0.000  0.968
 
band     9 # energy   -3.50648634 # occ.  2.00000000
 
ion      s      p      d    tot
    1  0.013  0.003  0.003  0.019
    2  0.013  0.003  0.003  0.019
    3  0.096  0.015  0.017  0.128
    4  0.096  0.015  0.017  0.128
    5  0.153  0.004  0.000  0.156
    6  0.153  0.004  0.000  0.156
tot    0.522  0.045  0.041  0.607
 
band    10 # energy   -2.93122744 # occ.  2.00000000
 
ion      s      p      d    tot
    1  0.001  0.017  0.003  0.021
    2  0.001  0.017  0.003  0.021
    3  0.097  0.016  0.025  0.138
    4  0.097  0.016  0.025  0.138
    5  0.169  0.004  0.000  0.172
    6  0.169  0.004  0.000  0.172
tot    0.535  0.072  0.057  0.664
 
band    11 # energy    0.95926255 # occ.  2.00000000
 
ion      s      p      d    tot
    1  0.030  0.006  0.006  0.042
    2  0.030  0.006  0.006  0.042
    3  0.007  0.024  0.109  0.140
    4  0.007  0.024  0.109  0.140
    5  0.004  0.067  0.000  0.071
    6  0.004  0.067  0.000  0.071
tot    0.083  0.193  0.231  0.506
 
band    12 # energy    1.27718498 # occ.  2.00000000
 
ion      s      p      d    tot
    1  0.007  0.003  0.008  0.018
    2  0.007  0.003  0.008  0.018
    3  0.010  0.019  0.229  0.258
    4  0.010  0.019  0.229  0.258
    5  0.013  0.077  0.000  0.090
    6  0.013  0.077  0.000  0.090
tot    0.059  0.199  0.474  0.732
 
band    13 # energy    1.30772739 # occ.  2.00000000
 
ion      s      p      d    tot
    1  0.005  0.001  0.006  0.012
    2  0.005  0.001  0.006  0.012
    3  0.010  0.014  0.274  0.299
    4  0.010  0.014  0.274  0.299
    5  0.008  0.086  0.000  0.094
    6  0.008  0.086  0.000  0.094
tot    0.047  0.203  0.560  0.810
 
band    14 # energy    1.99480044 # occ.  2.00000000
 
ion      s      p      d    tot
    1  0.000  0.000  0.008  0.008
    2  0.000  0.000  0.008  0.008
    3  0.000  0.014  0.334  0.348
    4  0.000  0.014  0.334  0.348
    5  0.000  0.089  0.000  0.089
    6  0.000  0.089  0.000  0.089
tot    0.000  0.207  0.683  0.890
 
band    15 # energy    2.07090750 # occ.  2.00000000
 
ion      s      p      d    tot
    1  0.000  0.001  0.002  0.003
    2  0.000  0.001  0.002  0.003
    3  0.000  0.013  0.345  0.358
    4  0.000  0.013  0.345  0.358
    5  0.000  0.088  0.000  0.088
    6  0.000  0.088  0.000  0.088
tot    0.000  0.204  0.694  0.898
 
band    16 # energy    2.21934451 # occ.  2.00000000
 
ion      s      p      d    tot
    1  0.011  0.013  0.021  0.045
    2  0.011  0.013  0.021  0.045
    3  0.000  0.011  0.198  0.209
    4  0.000  0.011  0.198  0.209
    5  0.002  0.060  0.000  0.062
    6  0.002  0.060  0.000  0.062
tot    0.028  0.168  0.437  0.634
 
band    17 # energy    2.92697932 # occ.  2.00000000
 
ion      s      p      d    tot
    1  0.006  0.012  0.010  0.028
    2  0.006  0.012  0.010  0.028
    3  0.003  0.008  0.293  0.305
    4  0.003  0.008  0.293  0.305
    5  0.005  0.023  0.000  0.028
    6  0.005  0.023  0.000  0.028
tot    0.029  0.085  0.607  0.720
 
band    18 # energy    3.69618739 # occ.  2.00000000
 
ion      s      p      d    tot
    1  0.000  0.004  0.013  0.017
    2  0.000  0.004  0.013  0.017
    3  0.012  0.001  0.391  0.405
    4  0.012  0.001  0.391  0.405
    5  0.001  0.003  0.000  0.003
    6  0.001  0.003  0.000  0.003
tot    0.026  0.015  0.809  0.850
 
band    19 # energy    3.80556032 # occ.  2.00000000
 
ion      s      p      d    tot
    1  0.000  0.000  0.013  0.013
    2  0.000  0.000  0.013  0.013
    3  0.000  0.000  0.443  0.443
    4  0.000  0.000  0.443  0.444
    5  0.000  0.001  0.000  0.001
    6  0.000  0.001  0.000  0.001
tot    0.000  0.002  0.912  0.914
 
band    20 # energy    3.87323867 # occ.  2.00000000
 
ion      s      p      d    tot
    1  0.000  0.002  0.006  0.008
    2  0.000  0.002  0.006  0.008
    3  0.000  0.000  0.451  0.451
    4  0.000  0.000  0.450  0.450
    5  0.000  0.000  0.000  0.000
    6  0.000  0.000  0.000  0.000
tot    0.000  0.004  0.913  0.917
 
band    21 # energy    3.91221970 # occ.  2.00000000
 
ion      s      p      d    tot
    1  0.008  0.008  0.027  0.043
    2  0.008  0.008  0.027  0.043
    3  0.001  0.014  0.311  0.325
    4  0.001  0.014  0.311  0.325
    5  0.000  0.003  0.000  0.003
    6  0.000  0.003  0.000  0.003
tot    0.019  0.048  0.676  0.743
 
band    22 # energy    4.61204911 # occ.  0.00000000
 
ion      s      p      d    tot
    1  0.000  0.007  0.044  0.051
    2  0.000  0.007  0.044  0.051
    3  0.001  0.032  0.244  0.277
    4  0.001  0.032  0.244  0.277
    5  0.001  0.035  0.000  0.036
    6  0.001  0.035  0.000  0.036
tot    0.005  0.148  0.576  0.729
 
band    23 # energy    6.01923273 # occ.  0.00000000
 
ion      s      p      d    tot
    1  0.005  0.005  0.154  0.165
    2  0.005  0.005  0.154  0.165
    3  0.019  0.019  0.059  0.097
    4  0.019  0.019  0.059  0.097
    5  0.001  0.022  0.000  0.023
    6  0.001  0.022  0.000  0.023
tot    0.052  0.092  0.427  0.570
 
band    24 # energy    6.50041558 # occ.  0.00000000
 
ion      s      p      d    tot
    1  0.005  0.004  0.102  0.112
    2  0.005  0.004  0.102  0.112
    3  0.003  0.026  0.204  0.232
    4  0.003  0.026  0.204  0.232
    5  0.011  0.014  0.000  0.025
    6  0.011  0.014  0.000  0.025
tot    0.038  0.088  0.612  0.738
 
band    25 # energy    6.83943748 # occ.  0.00000000
 
ion      s      p      d    tot
    1  0.000  0.004  0.146  0.150
    2  0.000  0.004  0.146  0.150
    3  0.008  0.027  0.118  0.153
    4  0.008  0.027  0.118  0.153
    5  0.006  0.038  0.000  0.044
    6  0.006  0.038  0.000  0.044
tot    0.029  0.139  0.526  0.694
 

 k-point     4 :    0.33333333 0.00000000 0.00000000     weight = 0.02469136

band     1 # energy  -35.87249331 # occ.  2.00000000
 
ion      s      p      d    tot
    1  0.494  0.000  0.000  0.494
    2  0.491  0.000  0.000  0.491
    3  0.000  0.000  0.000  0.000
    4  0.000  0.000  0.000  0.000
    5  0.000  0.000  0.000  0.000
    6  0.000  0.000  0.000  0.000
tot    0.985  0.000  0.000  0.985
 
band     2 # energy  -35.87216989 # occ.  2.00000000
 
ion      s      p      d    tot
    1  0.491  0.000  0.000  0.491
    2  0.494  0.000  0.000  0.494
    3  0.000  0.000  0.000  0.000
    4  0.000  0.000  0.000  0.000
    5  0.000  0.000  0.000  0.000
    6  0.000  0.000  0.000  0.000
tot    0.985  0.000  0.000  0.985
 
band     3 # energy  -17.19428123 # occ.  2.00000000
 
ion      s      p      d    tot
    1  0.000  0.472  0.000  0.472
    2  0.000  0.472  0.000  0.472
    3  0.000  0.000  0.000  0.001
    4  0.000  0.000  0.000  0.001
    5  0.000  0.000  0.000  0.000
    6  0.000  0.000  0.000  0.000
tot    0.001  0.944  0.000  0.945
 
band     4 # energy  -17.18973036 # occ.  2.00000000
 
ion      s      p      d    tot
    1  0.000  0.472  0.000  0.472
    2  0.000  0.472  0.000  0.472
    3  0.000  0.000  0.000  0.000
    4  0.000  0.000  0.000  0.000
    5  0.000  0.000  0.000  0.000
    6  0.000  0.000  0.000  0.000
tot    0.001  0.945  0.000  0.946
 
band     5 # energy  -16.90450661 # occ.  2.00000000
 
ion      s      p      d    tot
    1  0.000  0.483  0.000  0.483
    2  0.000  0.483  0.000  0.483
    3  0.000  0.000  0.000  0.000
    4  0.000  0.000  0.000  0.000
    5  0.000  0.000  0.000  0.000
    6  0.000  0.000  0.000  0.000
tot    0.000  0.966  0.000  0.966
 
band     6 # energy  -16.90353944 # occ.  2.00000000
 
ion      s      p      d    tot
    1  0.000  0.483  0.000  0.483
    2  0.000  0.483  0.000  0.483
    3  0.000  0.000  0.000  0.000
    4  0.000  0.000  0.000  0.000
    5  0.000  0.000  0.000  0.000
    6  0.000  0.000  0.000  0.000
tot    0.000  0.966  0.000  0.966
 
band     7 # energy  -16.88946309 # occ.  2.00000000
 
ion      s      p      d    tot
    1  0.000  0.475  0.000  0.475
    2  0.000  0.475  0.000  0.475
    3  0.001  0.000  0.000  0.001
    4  0.001  0.000  0.000  0.001
    5  0.001  0.000  0.000  0.001
    6  0.001  0.000  0.000  0.001
tot    0.002  0.951  0.000  0.953
 
band     8 # energy  -16.87247650 # occ.  2.00000000
 
ion      s      p      d    tot
    1  0.000  0.476  0.000  0.476
    2  0.000  0.476  0.000  0.476
    3  0.000  0.000  0.000  0.001
    4  0.000  0.000  0.000  0.001
    5  0.000  0.000  0.000  0.000
    6  0.000  0.000  0.000  0.000
tot    0.000  0.954  0.001  0.955
 
band     9 # energy   -2.72506565 # occ.  2.00000000
 
ion      s      p      d    tot
    1  0.009  0.005  0.006  0.020
    2  0.009  0.005  0.006  0.020
    3  0.068  0.031  0.030  0.129
    4  0.068  0.031  0.030  0.129
    5  0.166  0.005  0.000  0.172
    6  0.166  0.005  0.000  0.172
tot    0.488  0.082  0.071  0.641
 
band    10 # energy   -2.33192951 # occ.  2.00000000
 
ion      s      p      d    tot
    1  0.000  0.013  0.007  0.020
    2  0.000  0.013  0.007  0.020
    3  0.069  0.029  0.040  0.139
    4  0.069  0.029  0.040  0.139
    5  0.178  0.005  0.000  0.183
    6  0.178  0.005  0.000  0.183
tot    0.496  0.095  0.093  0.684
 
band    11 # energy    0.84399293 # occ.  2.00000000
 
ion      s      p      d    tot
    1  0.007  0.001  0.017  0.025
    2  0.007  0.001  0.017  0.025
    3  0.032  0.018  0.172  0.222
    4  0.032  0.018  0.172  0.222
    5  0.018  0.078  0.000  0.096
    6  0.018  0.078  0.000  0.096
tot    0.114  0.193  0.379  0.686
 
band    12 # energy    1.03686718 # occ.  2.00000000
 
ion      s      p      d    tot
    1  0.006  0.003  0.009  0.018
    2  0.006  0.003  0.009  0.018
    3  0.033  0.023  0.192  0.247
    4  0.033  0.023  0.192  0.247
    5  0.011  0.089  0.000  0.100
    6  0.011  0.089  0.000  0.100
tot    0.098  0.230  0.401  0.729
 
band    13 # energy    1.55049175 # occ.  2.00000000
 
ion      s      p      d    tot
    1  0.017  0.010  0.006  0.034
    2  0.017  0.010  0.006  0.034
    3  0.006  0.022  0.151  0.179
    4  0.006  0.022  0.151  0.179
    5  0.003  0.070  0.000  0.073
    6  0.003  0.070  0.000  0.073
tot    0.052  0.204  0.314  0.570
 
band    14 # energy    2.26660478 # occ.  2.00000000
 
ion      s      p      d    tot
    1  0.001  0.015  0.016  0.032
    2  0.001  0.015  0.016  0.032
    3  0.001  0.010  0.233  0.245
    4  0.001  0.010  0.233  0.245
    5  0.001  0.072  0.000  0.073
    6  0.001  0.072  0.000  0.073
tot    0.005  0.194  0.499  0.699
 
band    15 # energy    2.46444976 # occ.  2.00000000
 
ion      s      p      d    tot
    1  0.000  0.000  0.008  0.009
    2  0.000  0.000  0.008  0.009
    3  0.000  0.021  0.332  0.353
    4  0.000  0.021  0.332  0.353
    5  0.000  0.087  0.000  0.087
    6  0.000  0.087  0.000  0.087
tot    0.000  0.218  0.681  0.899
 
band    16 # energy    2.54370976 # occ.  2.00000000
 
ion      s      p      d    tot
    1  0.000  0.001  0.002  0.003
    2  0.000  0.001  0.002  0.003