PROCAR new format
# of k-points:   60         # of bands:   35         # of ions:    8

 k-point     1 :    0.00000000 0.00000000 0.00000000     weight = 0.00462963

band     1 # energy  -35.84984356 # occ.  2.00000000
 
ion      s      p      d    tot
    1  0.492  0.000  0.000  0.492
    2  0.492  0.000  0.000  0.492
    3  0.000  0.000  0.000  0.000
    4  0.000  0.000  0.000  0.000
    5  0.000  0.000  0.000  0.000
    6  0.000  0.000  0.000  0.000
    7  0.000  0.000  0.000  0.000
    8  0.000  0.000  0.000  0.000
tot    0.985  0.000  0.000  0.985
 
band     2 # energy  -35.84280146 # occ.  2.00000000
 
ion      s      p      d    tot
    1  0.493  0.000  0.000  0.493
    2  0.493  0.000  0.000  0.493
    3  0.000  0.000  0.000  0.000
    4  0.000  0.000  0.000  0.000
    5  0.000  0.000  0.000  0.000
    6  0.000  0.000  0.000  0.000
    7  0.000  0.000  0.000  0.000
    8  0.000  0.000  0.000  0.000
tot    0.985  0.000  0.000  0.985
 
band     3 # energy  -17.06558580 # occ.  2.00000000
 
ion      s      p      d    tot
    1  0.000  0.475  0.000  0.475
    2  0.000  0.475  0.000  0.475
    3  0.000  0.000  0.000  0.000
    4  0.000  0.000  0.000  0.000
    5  0.000  0.000  0.000  0.000
    6  0.000  0.000  0.000  0.000
    7  0.001  0.000  0.000  0.001
    8  0.001  0.000  0.000  0.001
tot    0.001  0.950  0.000  0.951
 
band     4 # energy  -16.94789635 # occ.  2.00000000
 
ion      s      p      d    tot
    1  0.000  0.481  0.000  0.481
    2  0.000  0.481  0.000  0.481
    3  0.000  0.000  0.000  0.000
    4  0.000  0.000  0.000  0.000
    5  0.000  0.000  0.000  0.000
    6  0.000  0.000  0.000  0.000
    7  0.000  0.000  0.000  0.000
    8  0.000  0.000  0.000  0.000
tot    0.000  0.963  0.000  0.963
 
band     5 # energy  -16.86611497 # occ.  2.00000000
 
ion      s      p      d    tot
    1  0.000  0.477  0.000  0.477
    2  0.000  0.477  0.000  0.477
    3  0.000  0.000  0.000  0.000
    4  0.000  0.000  0.000  0.000
    5  0.000  0.000  0.000  0.000
    6  0.000  0.000  0.000  0.000
    7  0.000  0.000  0.000  0.000
    8  0.000  0.000  0.000  0.000
tot    0.000  0.955  0.000  0.955
 
band     6 # energy  -16.84844127 # occ.  2.00000000
 
ion      s      p      d    tot
    1  0.000  0.478  0.000  0.478
    2  0.000  0.478  0.000  0.478
    3  0.000  0.000  0.000  0.000
    4  0.000  0.000  0.000  0.000
    5  0.000  0.000  0.000  0.000
    6  0.000  0.000  0.000  0.000
    7  0.000  0.000  0.000  0.000
    8  0.000  0.000  0.000  0.000
tot    0.000  0.957  0.000  0.957
 
band     7 # energy  -16.79134319 # occ.  2.00000000
 
ion      s      p      d    tot
    1  0.000  0.482  0.000  0.482
    2  0.000  0.482  0.000  0.482
    3  0.000  0.000  0.000  0.000
    4  0.000  0.000  0.000  0.000
    5  0.000  0.000  0.000  0.000
    6  0.000  0.000  0.000  0.000
    7  0.000  0.000  0.000  0.000
    8  0.000  0.000  0.000  0.000
tot    0.000  0.965  0.000  0.965
 
band     8 # energy  -16.78258257 # occ.  2.00000000
 
ion      s      p      d    tot
    1  0.000  0.483  0.000  0.483
    2  0.000  0.483  0.000  0.483
    3  0.000  0.000  0.000  0.000
    4  0.000  0.000  0.000  0.000
    5  0.000  0.000  0.000  0.000
    6  0.000  0.000  0.000  0.000
    7  0.000  0.000  0.000  0.000
    8  0.000  0.000  0.000  0.000
tot    0.000  0.965  0.000  0.965
 
band     9 # energy   -8.49166872 # occ.  2.00000000
 
ion      s      p      d    tot
    1  0.002  0.000  0.001  0.003
    2  0.002  0.000  0.001  0.003
    3  0.033  0.000  0.010  0.043
    4  0.033  0.000  0.010  0.043
    5  0.086  0.000  0.000  0.086
    6  0.086  0.000  0.000  0.086
    7  0.182  0.000  0.000  0.182
    8  0.182  0.000  0.000  0.182
tot    0.607  0.000  0.021  0.628
 
band    10 # energy   -7.70499048 # occ.  2.00000000
 
ion      s      p      d    tot
    1  0.000  0.005  0.000  0.005
    2  0.000  0.005  0.000  0.005
    3  0.000  0.024  0.000  0.024
    4  0.000  0.024  0.000  0.024
    5  0.090  0.000  0.000  0.090
    6  0.090  0.000  0.000  0.090
    7  0.206  0.000  0.000  0.206
    8  0.206  0.000  0.000  0.206
tot    0.591  0.058  0.000  0.650
 
band    11 # energy   -1.91090175 # occ.  2.00000000
 
ion      s      p      d    tot
    1  0.008  0.000  0.005  0.013
    2  0.008  0.000  0.005  0.013
    3  0.106  0.000  0.021  0.127
    4  0.106  0.000  0.021  0.127
    5  0.000  0.057  0.000  0.057
    6  0.000  0.057  0.000  0.057
    7  0.000  0.077  0.000  0.077
    8  0.000  0.077  0.000  0.077
tot    0.228  0.267  0.052  0.548
 
band    12 # energy   -1.65555220 # occ.  2.00000000
 
ion      s      p      d    tot
    1  0.000  0.000  0.001  0.001
    2  0.000  0.000  0.001  0.001
    3  0.000  0.000  0.067  0.067
    4  0.000  0.000  0.067  0.067
    5  0.000  0.140  0.000  0.140
    6  0.000  0.140  0.000  0.140
    7  0.000  0.148  0.000  0.148
    8  0.000  0.148  0.000  0.148
tot    0.000  0.576  0.136  0.713
 
band    13 # energy   -1.17329367 # occ.  2.00000000
 
ion      s      p      d    tot
    1  0.000  0.001  0.000  0.001
    2  0.000  0.001  0.000  0.001
    3  0.000  0.017  0.000  0.017
    4  0.000  0.017  0.000  0.017
    5  0.000  0.154  0.000  0.154
    6  0.000  0.154  0.000  0.154
    7  0.000  0.168  0.000  0.168
    8  0.000  0.168  0.000  0.168
tot    0.000  0.681  0.000  0.681
 
band    14 # energy    0.19059112 # occ.  2.00000000
 
ion      s      p      d    tot
    1  0.000  0.000  0.020  0.020
    2  0.000  0.000  0.020  0.020
    3  0.000  0.000  0.067  0.067
    4  0.000  0.000  0.067  0.067
    5  0.000  0.059  0.000  0.059
    6  0.000  0.059  0.000  0.059
    7  0.000  0.093  0.000  0.093
    8  0.000  0.093  0.000  0.093
tot    0.000  0.305  0.175  0.481
 
band    15 # energy    0.80947965 # occ.  2.00000000
 
ion      s      p      d    tot
    1  0.000  0.012  0.000  0.012
    2  0.000  0.012  0.000  0.012
    3  0.000  0.018  0.000  0.018
    4  0.000  0.018  0.000  0.018
    5  0.000  0.063  0.000  0.063
    6  0.000  0.063  0.000  0.063
    7  0.000  0.115  0.000  0.115
    8  0.000  0.115  0.000  0.115
tot    0.000  0.416  0.000  0.416
 
band    16 # energy    1.23005177 # occ.  2.00000000
 
ion      s      p      d    tot
    1  0.003  0.000  0.008  0.011
    2  0.003  0.000  0.008  0.011
    3  0.003  0.000  0.225  0.228
    4  0.003  0.000  0.225  0.228
    5  0.103  0.000  0.000  0.103
    6  0.103  0.000  0.000  0.103
    7  0.034  0.000  0.000  0.034
    8  0.034  0.000  0.000  0.034
tot    0.286  0.000  0.465  0.751
 
band    17 # energy    1.44455691 # occ.  2.00000000
 
ion      s      p      d    tot
    1  0.000  0.004  0.000  0.004
    2  0.000  0.004  0.000  0.004
    3  0.000  0.083  0.000  0.083
    4  0.000  0.083  0.000  0.083
    5  0.000  0.088  0.000  0.088
    6  0.000  0.088  0.000  0.088
    7  0.000  0.128  0.000  0.128
    8  0.000  0.128  0.000  0.128
tot    0.000  0.605  0.000  0.605
 
band    18 # energy    2.33512736 # occ.  2.00000000
 
ion      s      p      d    tot
    1  0.003  0.000  0.006  0.010
    2  0.003  0.000  0.006  0.010
    3  0.001  0.000  0.354  0.356
    4  0.001  0.000  0.354  0.356
    5  0.000  0.073  0.000  0.073
    6  0.000  0.073  0.000  0.073
    7  0.000  0.007  0.000  0.007
    8  0.000  0.007  0.000  0.007
tot    0.009  0.162  0.722  0.892
 
band    19 # energy    3.03353153 # occ.  2.00000000
 
ion      s      p      d    tot
    1  0.028  0.000  0.018  0.045
    2  0.028  0.000  0.018  0.045
    3  0.020  0.000  0.159  0.179
    4  0.020  0.000  0.159  0.179
    5  0.001  0.000  0.000  0.001
    6  0.001  0.000  0.000  0.001
    7  0.017  0.000  0.000  0.017
    8  0.017  0.000  0.000  0.017
tot    0.131  0.000  0.354  0.485
 
band    20 # energy    3.80211877 # occ.  2.00000000
 
ion      s      p      d    tot
    1  0.013  0.000  0.032  0.045
    2  0.013  0.000  0.032  0.045
    3  0.013  0.000  0.274  0.287
    4  0.013  0.000  0.274  0.287
    5  0.000  0.000  0.000  0.000
    6  0.000  0.000  0.000  0.000
    7  0.000  0.005  0.000  0.005
    8  0.000  0.005  0.000  0.005
tot    0.052  0.009  0.612  0.674
 
band    21 # energy    3.91591991 # occ.  2.00000000
 
ion      s      p      d    tot
    1  0.000  0.000  0.002  0.002
    2  0.000  0.000  0.002  0.002
    3  0.000  0.000  0.429  0.429
    4  0.000  0.000  0.429  0.429
    5  0.000  0.000  0.000  0.000
    6  0.000  0.000  0.000  0.000
    7  0.000  0.000  0.000  0.000
    8  0.000  0.000  0.000  0.000
tot    0.000  0.000  0.862  0.862
 
band    22 # energy    4.29336063 # occ.  2.00000000
 
ion      s      p      d    tot
    1  0.000  0.000  0.013  0.013
    2  0.000  0.000  0.013  0.013
    3  0.000  0.000  0.413  0.413
    4  0.000  0.000  0.413  0.413
    5  0.000  0.000  0.000  0.000
    6  0.000  0.000  0.000  0.000
    7  0.000  0.000  0.000  0.000
    8  0.000  0.000  0.000  0.000
tot    0.000  0.000  0.852  0.852
 
band    23 # energy    4.30445258 # occ.  2.00000000
 
ion      s      p      d    tot
    1  0.000  0.001  0.000  0.001
    2  0.000  0.001  0.000  0.001
    3  0.000  0.048  0.000  0.048
    4  0.000  0.048  0.000  0.048
    5  0.178  0.000  0.000  0.178
    6  0.178  0.000  0.000  0.178
    7  0.101  0.000  0.000  0.101
    8  0.101  0.000  0.000  0.101
tot    0.557  0.099  0.000  0.656
 
band    24 # energy    4.40399721 # occ.  2.00000000
 
ion      s      p      d    tot
    1  0.000  0.000  0.031  0.031
    2  0.000  0.000  0.031  0.031
    3  0.000  0.000  0.397  0.397
    4  0.000  0.000  0.397  0.397
    5  0.000  0.000  0.000  0.000
    6  0.000  0.000  0.000  0.000
    7  0.000  0.000  0.000  0.000
    8  0.000  0.000  0.000  0.000
tot    0.000  0.000  0.857  0.857
 
band    25 # energy    4.54013485 # occ.  2.00000000
 
ion      s      p      d    tot
    1  0.000  0.000  0.029  0.029
    2  0.000  0.000  0.029  0.029
    3  0.000  0.000  0.415  0.415
    4  0.000  0.000  0.415  0.415
    5  0.000  0.000  0.000  0.000
    6  0.000  0.000  0.000  0.000
    7  0.000  0.000  0.000  0.000
    8  0.000  0.000  0.000  0.000
tot    0.000  0.000  0.888  0.888
 
band    26 # energy    4.85234972 # occ.  2.00000000
 
ion      s      p      d    tot
    1  0.000  0.000  0.078  0.078
    2  0.000  0.000  0.078  0.078
    3  0.081  0.000  0.072  0.153
    4  0.081  0.000  0.072  0.153
    5  0.013  0.000  0.000  0.013
    6  0.013  0.000  0.000  0.013
    7  0.043  0.000  0.000  0.043
    8  0.043  0.000  0.000  0.043
tot    0.274  0.000  0.301  0.576
 
band    27 # energy    5.21043649 # occ.  0.00000000
 
ion      s      p      d    tot
    1  0.000  0.000  0.017  0.017
    2  0.000  0.000  0.017  0.017
    3  0.000  0.000  0.348  0.348
    4  0.000  0.000  0.348  0.348
    5  0.000  0.005  0.000  0.005
    6  0.000  0.005  0.000  0.005
    7  0.000  0.051  0.000  0.051
    8  0.000  0.051  0.000  0.051
tot    0.000  0.112  0.730  0.842
 
band    28 # energy    5.88935847 # occ.  0.00000000
 
ion      s      p      d    tot
    1  0.000  0.000  0.000  0.000
    2  0.000  0.000  0.000  0.000
    3  0.000  0.000  0.425  0.425
    4  0.000  0.000  0.425  0.425
    5  0.000  0.022  0.000  0.022
    6  0.000  0.022  0.000  0.022
    7  0.000  0.031  0.000  0.031
    8  0.000  0.031  0.000  0.031
tot    0.000  0.105  0.850  0.955
 
band    29 # energy    6.19171230 # occ.  0.00000000
 
ion      s      p      d    tot
    1  0.016  0.000  0.050  0.065
    2  0.016  0.000  0.050  0.065
    3  0.000  0.000  0.233  0.234
    4  0.000  0.000  0.233  0.234
    5  0.000  0.000  0.000  0.000
    6  0.000  0.000  0.000  0.000
    7  0.029  0.000  0.000  0.029
    8  0.029  0.000  0.000  0.029
tot    0.089  0.000  0.567  0.656
 
band    30 # energy    7.21298360 # occ.  0.00000000
 
ion      s      p      d    tot
    1  0.000  0.039  0.000  0.039
    2  0.000  0.039  0.000  0.039
    3  0.000  0.001  0.000  0.001
    4  0.000  0.001  0.000  0.001
    5  0.009  0.000  0.000  0.009
    6  0.009  0.000  0.000  0.009
    7  0.016  0.000  0.000  0.016
    8  0.016  0.000  0.000  0.016
tot    0.051  0.080  0.000  0.130
 
band    31 # energy    7.63114762 # occ.  0.00000000
 
ion      s      p      d    tot
    1  0.005  0.000  0.146  0.151
    2  0.005  0.000  0.146  0.151
    3  0.003  0.000  0.192  0.195
    4  0.003  0.000  0.192  0.195
    5  0.000  0.001  0.000  0.001
    6  0.000  0.001  0.000  0.001
    7  0.000  0.020  0.000  0.020
    8  0.000  0.020  0.000  0.020
tot    0.015  0.043  0.677  0.736
 
band    32 # energy    8.05714929 # occ.  0.00000000
 
ion      s      p      d    tot
    1  0.000  0.044  0.000  0.044
    2  0.000  0.044  0.000  0.044
    3  0.000  0.102  0.000  0.102
    4  0.000  0.102  0.000  0.102
    5  0.000  0.000  0.000  0.000
    6  0.000  0.000  0.000  0.000
    7  0.000  0.000  0.000  0.000
    8  0.000  0.000  0.000  0.000
tot    0.000  0.293  0.000  0.293
 
band    33 # energy    8.29955071 # occ.  0.00000000
 
ion      s      p      d    tot
    1  0.011  0.000  0.111  0.122
    2  0.011  0.000  0.111  0.122
    3  0.011  0.000  0.185  0.196
    4  0.011  0.000  0.185  0.196
    5  0.026  0.000  0.000  0.026
    6  0.026  0.000  0.000  0.026
    7  0.007  0.000  0.000  0.007
    8  0.007  0.000  0.000  0.007
tot    0.111  0.000  0.592  0.702
 
band    34 # energy    8.57608635 # occ.  0.00000000
 
ion      s      p      d    tot
    1  0.000  0.000  0.286  0.286
    2  0.000  0.000  0.286  0.286
    3  0.000  0.000  0.052  0.052
    4  0.000  0.000  0.052  0.052
    5  0.000  0.000  0.000  0.000
    6  0.000  0.000  0.000  0.000
    7  0.000  0.000  0.000  0.000
    8  0.000  0.000  0.000  0.000
tot    0.000  0.000  0.676  0.676
 
band    35 # energy    9.10021621 # occ.  0.00000000
 
ion      s      p      d    tot
    1  0.000  0.000  0.345  0.345
    2  0.000  0.000  0.345  0.345
    3  0.000  0.000  0.000  0.000
    4  0.000  0.000  0.000  0.000
    5  0.000  0.006  0.000  0.006
    6  0.000  0.006  0.000  0.006
    7  0.000  0.003  0.000  0.003
    8  0.000  0.003  0.000  0.003
tot    0.000  0.018  0.690  0.708
 

 k-point     2 :    0.11111111 0.00000000 0.00000000     weight = 0.00925926

band     1 # energy  -35.84866841 # occ.  2.00000000
 
ion      s      p      d    tot
    1  0.492  0.000  0.000  0.492
    2  0.492  0.000  0.000  0.492
    3  0.000  0.000  0.000  0.000
    4  0.000  0.000  0.000  0.000
    5  0.000  0.000  0.000  0.000
    6  0.000  0.000  0.000  0.000
    7  0.000  0.000  0.000  0.000
    8  0.000  0.000  0.000  0.000
tot    0.985  0.000  0.000  0.985
 
band     2 # energy  -35.84161066 # occ.  2.00000000
 
ion      s      p      d    tot
    1  0.493  0.000  0.000  0.493
    2  0.493  0.000  0.000  0.493
    3  0.000  0.000  0.000  0.000
    4  0.000  0.000  0.000  0.000
    5  0.000  0.000  0.000  0.000
    6  0.000  0.000  0.000  0.000
    7  0.000  0.000  0.000  0.000
    8  0.000  0.000  0.000  0.000
tot    0.985  0.000  0.000  0.985
 
band     3 # energy  -17.06348203 # occ.  2.00000000
 
ion      s      p      d    tot
    1  0.000  0.475  0.000  0.475
    2  0.000  0.475  0.000  0.475
    3  0.000  0.000  0.000  0.000
    4  0.000  0.000  0.000  0.000
    5  0.000  0.000  0.000  0.000
    6  0.000  0.000  0.000  0.000
    7  0.001  0.000  0.000  0.001
    8  0.001  0.000  0.000  0.001
tot    0.001  0.950  0.000  0.951
 
band     4 # energy  -16.94650291 # occ.  2.00000000
 
ion      s      p      d    tot
    1  0.000  0.481  0.000  0.481
    2  0.000  0.481  0.000  0.481
    3  0.000  0.000  0.000  0.000
    4  0.000  0.000  0.000  0.000
    5  0.000  0.000  0.000  0.000
    6  0.000  0.000  0.000  0.000
    7  0.000  0.000  0.000  0.000
    8  0.000  0.000  0.000  0.000
tot    0.000  0.963  0.000  0.963
 
band     5 # energy  -16.86462365 # occ.  2.00000000
 
ion      s      p      d    tot
    1  0.000  0.477  0.000  0.477
    2  0.000  0.477  0.000  0.477
    3  0.000  0.000  0.000  0.000
    4  0.000  0.000  0.000  0.000
    5  0.000  0.000  0.000  0.000
    6  0.000  0.000  0.000  0.000
    7  0.000  0.000  0.000  0.000
    8  0.000  0.000  0.000  0.000
tot    0.000  0.956  0.000  0.956
 
band     6 # energy  -16.84710423 # occ.  2.00000000
 
ion      s      p      d    tot
    1  0.000  0.478  0.000  0.478
    2  0.000  0.478  0.000  0.478
    3  0.000  0.000  0.000  0.000
    4  0.000  0.000  0.000  0.000
    5  0.000  0.000  0.000  0.000
    6  0.000  0.000  0.000  0.000
    7  0.000  0.000  0.000  0.000
    8  0.000  0.000  0.000  0.000
tot    0.000  0.957  0.000  0.958
 
band     7 # energy  -16.80842600 # occ.  2.00000000
 
ion      s      p      d    tot
    1  0.000  0.481  0.000  0.481
    2  0.000  0.481  0.000  0.481
    3  0.000  0.000  0.000  0.000
    4  0.000  0.000  0.000  0.000
    5  0.000  0.000  0.000  0.000
    6  0.000  0.000  0.000  0.000
    7  0.000  0.000  0.000  0.000
    8  0.000  0.000  0.000  0.000
tot    0.000  0.963  0.000  0.963
 
band     8 # energy  -16.79903453 # occ.  2.00000000
 
ion      s      p      d    tot
    1  0.000  0.482  0.000  0.482
    2  0.000  0.482  0.000  0.482
    3  0.000  0.000  0.000  0.000
    4  0.000  0.000  0.000  0.000
    5  0.000  0.000  0.000  0.000
    6  0.000  0.000  0.000  0.000
    7  0.000  0.000  0.000  0.000
    8  0.000  0.000  0.000  0.000
tot    0.000  0.964  0.000  0.964
 
band     9 # energy   -8.39322993 # occ.  2.00000000
 
ion      s      p      d    tot
    1  0.002  0.000  0.001  0.003
    2  0.002  0.000  0.001  0.003
    3  0.031  0.001  0.010  0.042
    4  0.031  0.001  0.010  0.042
    5  0.083  0.003  0.000  0.085
    6  0.083  0.003  0.000  0.085
    7  0.184  0.001  0.000  0.184
    8  0.184  0.001  0.000  0.184
tot    0.600  0.008  0.020  0.629
 
band    10 # energy   -7.63574252 # occ.  2.00000000
 
ion      s      p      d    tot
    1  0.000  0.005  0.000  0.005
    2  0.000  0.005  0.000  0.005
    3  0.000  0.023  0.001  0.024
    4  0.000  0.023  0.001  0.024
    5  0.085  0.004  0.000  0.089
    6  0.085  0.004  0.000  0.089
    7  0.207  0.000  0.000  0.208
    8  0.207  0.000  0.000  0.208
tot    0.584  0.064  0.003  0.650
 
band    11 # energy   -1.98475931 # occ.  2.00000000
 
ion      s      p      d    tot
    1  0.000  0.000  0.001  0.001
    2  0.000  0.000  0.001  0.001
    3  0.000  0.007  0.055  0.062
    4  0.000  0.007  0.055  0.062
    5  0.027  0.119  0.000  0.147
    6  0.027  0.119  0.000  0.147
    7  0.007  0.137  0.000  0.144
    8  0.007  0.137  0.000  0.144
tot    0.068  0.526  0.112  0.707
 
band    12 # energy   -1.84391031 # occ.  2.00000000
 
ion      s      p      d    tot
    1  0.000  0.001  0.001  0.002
    2  0.000  0.001  0.001  0.002
    3  0.009  0.014  0.019  0.042
    4  0.009  0.014  0.019  0.042
    5  0.039  0.113  0.000  0.152
    6  0.039  0.113  0.000  0.152
    7  0.018  0.133  0.000  0.151
    8  0.018  0.133  0.000  0.151
tot    0.131  0.522  0.039  0.692
 
band    13 # energy   -1.77833675 # occ.  2.00000000
 
ion      s      p      d    tot
    1  0.008  0.000  0.005  0.013
    2  0.008  0.000  0.005  0.013
    3  0.103  0.002  0.022  0.127
    4  0.103  0.002  0.022  0.127
    5  0.000  0.058  0.000  0.058
    6  0.000  0.058  0.000  0.058
    7  0.000  0.077  0.000  0.077
    8  0.000  0.077  0.000  0.077
tot    0.223  0.272  0.054  0.549
 
band    14 # energy    0.30402188 # occ.  2.00000000
 
ion      s      p      d    tot
    1  0.000  0.000  0.020  0.020
    2  0.000  0.000  0.020  0.020
    3  0.000  0.000  0.069  0.069
    4  0.000  0.000  0.069  0.069
    5  0.000  0.059  0.000  0.059
    6  0.000  0.059  0.000  0.059
    7  0.000  0.093  0.000  0.093
    8  0.000  0.093  0.000  0.093
tot    0.000  0.304  0.178  0.482
 
band    15 # energy    0.91015247 # occ.  2.00000000
 
ion      s      p      d    tot
    1  0.000  0.012  0.000  0.013
    2  0.000  0.012  0.000  0.013
    3  0.000  0.018  0.002  0.020
    4  0.000  0.018  0.002  0.020
    5  0.000  0.061  0.000  0.061
    6  0.000  0.061  0.000  0.061
    7  0.000  0.114  0.000  0.114
    8  0.000  0.114  0.000  0.114
tot    0.000  0.413  0.004  0.416
 
band    16 # energy    1.47286918 # occ.  2.00000000
 
ion      s      p      d    tot
    1  0.000  0.003  0.000  0.004
    2  0.000  0.003  0.000  0.004
    3  0.000  0.075  0.019  0.094
    4  0.000  0.075  0.019  0.094
    5  0.000  0.080  0.000  0.080
    6  0.000  0.080  0.000  0.080
    7  0.000  0.127  0.000  0.127
    8  0.000  0.127  0.000  0.127
tot    0.000  0.571  0.037  0.608
 
band    17 # energy    1.82252991 # occ.  2.00000000
 
ion      s      p      d    tot
    1  0.004  0.000  0.007  0.011
    2  0.004  0.000  0.007  0.011
    3  0.000  0.001  0.225  0.226
    4  0.000  0.001  0.225  0.226
    5  0.066  0.030  0.000  0.096
    6  0.066  0.030  0.000  0.096
    7  0.014  0.023  0.000  0.037
    8  0.014  0.023  0.000  0.037
tot    0.168  0.108  0.464  0.741
 
band    18 # energy    2.28834721 # occ.  2.00000000
 
ion      s      p      d    tot
    1  0.003  0.000  0.007  0.010
    2  0.003  0.000  0.007  0.010
    3  0.003  0.002  0.340  0.345
    4  0.003  0.002  0.340  0.345
    5  0.000  0.075  0.000  0.075
    6  0.000  0.075  0.000  0.075
    7  0.000  0.010  0.000  0.010
    8  0.000  0.010  0.000  0.010
tot    0.011  0.175  0.694  0.880
 
band    19 # energy    3.18117391 # occ.  2.00000000
 
ion      s      p      d    tot
    1  0.024  0.002  0.017  0.043
    2  0.024  0.002  0.017  0.043
    3  0.017  0.000  0.173  0.190
    4  0.017  0.000  0.173  0.190
    5  0.000  0.001  0.000  0.001
    6  0.000  0.001  0.000  0.001
    7  0.015  0.003  0.000  0.017
    8  0.015  0.003  0.000  0.017
tot    0.111  0.011  0.381  0.503
 
band    20 # energy    3.87916101 # occ.  2.00000000
 
ion      s      p      d    tot
    1  0.011  0.002  0.029  0.042
    2  0.011  0.002  0.029  0.042
    3  0.015  0.000  0.279  0.294
    4  0.015  0.000  0.279  0.294
    5  0.000  0.000  0.000  0.000
    6  0.000  0.000  0.000  0.000
    7  0.000  0.005  0.000  0.005
    8  0.000  0.005  0.000  0.005
tot    0.053  0.013  0.615  0.681
 
band    21 # energy    3.93033354 # occ.  2.00000000
 
ion      s      p      d    tot
    1  0.000  0.000  0.003  0.003
    2  0.000  0.000  0.003  0.003
    3  0.000  0.012  0.394  0.406
    4  0.000  0.012  0.394  0.406
    5  0.000  0.016  0.000  0.016
    6  0.000  0.016  0.000  0.016
    7  0.000  0.000  0.000  0.000
    8  0.000  0.000  0.000  0.000
tot    0.000  0.056  0.793  0.850
 
band    22 # energy    4.31935492 # occ.  2.00000000
 
ion      s      p      d    tot
    1  0.000  0.000  0.012  0.012
    2  0.000  0.000  0.012  0.012
    3  0.000  0.000  0.417  0.417
    4  0.000  0.000  0.417  0.417
    5  0.000  0.000  0.000  0.000
    6  0.000  0.000  0.000  0.000
    7  0.000  0.000  0.000  0.000
    8  0.000  0.000  0.000  0.000
tot    0.000  0.000  0.857  0.857
 
band    23 # energy    4.36778837 # occ.  2.00000000
 
ion      s      p      d    tot
    1  0.000  0.000  0.031  0.032
    2  0.000  0.000  0.031  0.032
    3  0.000  0.001  0.382  0.383
    4  0.000  0.001  0.382  0.383
    5  0.000  0.003  0.000  0.003
    6  0.000  0.003  0.000  0.003
    7  0.000  0.000  0.000  0.000
    8  0.000  0.000  0.000  0.000
tot    0.000  0.011  0.826  0.837
 
band    24 # energy    4.53225806 # occ.  2.00000000
 
ion      s      p      d    tot
    1  0.000  0.001  0.026  0.027
    2  0.000  0.001  0.026  0.027
    3  0.000  0.000  0.415  0.415
    4  0.000  0.000  0.415  0.415
    5  0.000  0.000  0.000  0.000
    6  0.000  0.000  0.000  0.000
    7  0.000  0.000  0.000  0.000
    8  0.000  0.000  0.000  0.000
tot    0.000  0.002  0.882  0.884
 
band    25 # energy    4.56914288 # occ.  2.00000000
 
ion      s      p      d    tot
    1  0.000  0.001  0.000  0.001
    2  0.000  0.001  0.000  0.001
    3  0.000  0.036  0.100  0.135
    4  0.000  0.036  0.100  0.135
    5  0.130  0.008  0.000  0.138
    6  0.130  0.008  0.000  0.138
    7  0.081  0.002  0.000  0.083
    8  0.081  0.002  0.000  0.083
tot    0.422  0.093  0.200  0.715
 
band    26 # energy    5.05485554 # occ.  0.00002250
 
ion      s      p      d    tot
    1  0.000  0.000  0.019  0.019
    2  0.000  0.000  0.019  0.019
    3  0.000  0.000  0.325  0.325
    4  0.000  0.000  0.325  0.325
    5  0.000  0.008  0.000  0.008
    6  0.000  0.008  0.000  0.008
    7  0.000  0.055  0.000  0.055
    8  0.000  0.055  0.000  0.055
tot    0.000  0.126  0.687  0.813
 
band    27 # energy    5.07381326 # occ.  0.00000000
 
ion      s      p      d    tot
    1  0.000  0.000  0.090  0.090
    2  0.000  0.000  0.090  0.090
    3  0.076  0.003  0.047  0.126
    4  0.076  0.003  0.047  0.126
    5  0.013  0.006  0.000  0.018
    6  0.013  0.006  0.000  0.018
    7  0.037  0.006  0.000  0.043
    8  0.037  0.006  0.000  0.043
tot    0.252  0.029  0.272  0.553
 
band    28 # energy    6.09057166 # occ.  0.00000000
 
ion      s      p      d    tot
    1  0.000  0.000  0.000  0.000
    2  0.000  0.000  0.000  0.000
    3  0.000  0.006  0.334  0.339
    4  0.000  0.006  0.334  0.339
    5  0.021  0.037  0.000  0.058
    6  0.021  0.037  0.000  0.058
    7  0.008  0.039  0.000  0.047
    8  0.008  0.039  0.000  0.047
tot    0.059  0.162  0.667  0.888
 
band    29 # energy    6.26836143 # occ.  0.00000000
 
ion      s      p      d    tot
    1  0.017  0.000  0.041  0.058
    2  0.017  0.000  0.041  0.058
    3  0.001  0.000  0.237  0.238
    4  0.001  0.000  0.237  0.238
    5  0.000  0.000  0.000  0.001
    6  0.000  0.000  0.000  0.001
    7  0.033  0.003  0.000  0.035
    8  0.033  0.003  0.000  0.035
tot    0.102  0.007  0.556  0.664
 
band    30 # energy    7.17724859 # occ.  0.00000000
 
ion      s      p      d    tot
    1  0.000  0.033  0.029  0.062
    2  0.000  0.033  0.029  0.062
    3  0.000  0.001  0.001  0.002
    4  0.000  0.001  0.001  0.002
    5  0.010  0.000  0.000  0.010
    6  0.010  0.000  0.000  0.010
    7  0.013  0.002  0.000  0.015
    8  0.013  0.002  0.000  0.015
tot    0.047  0.071  0.060  0.178
 
band    31 # energy    7.31354266 # occ.  0.00000000
 
ion      s      p      d    tot
    1  0.002  0.003  0.089  0.094
    2  0.002  0.003  0.089  0.094
    3  0.014  0.020  0.188  0.221
    4  0.014  0.020  0.188  0.221
    5  0.000  0.004  0.000  0.004
    6  0.000  0.004  0.000  0.004
    7  0.000  0.028  0.000  0.028
    8  0.000  0.028  0.000  0.028
tot    0.031  0.111  0.554  0.696
 
band    32 # energy    7.83213609 # occ.  0.00000000
 
ion      s      p      d    tot
    1  0.000  0.033  0.058  0.091
    2  0.000  0.033  0.058  0.091
    3  0.000  0.093  0.003  0.096
    4  0.000  0.093  0.003  0.096
    5  0.000  0.000  0.000  0.000
    6  0.000  0.000  0.000  0.000
    7  0.000  0.000  0.000  0.000
    8  0.000  0.000  0.000  0.000
tot    0.000  0.251  0.123  0.374
 
band    33 # energy    8.14169539 # occ.  0.00000000
 
ion      s      p      d    tot
    1  0.012  0.000  0.093  0.105
    2  0.012  0.000  0.093  0.105
    3  0.008  0.004  0.189  0.201
    4  0.008  0.004  0.189  0.201
    5  0.025  0.007  0.000  0.032
    6  0.025  0.007  0.000  0.032
    7  0.006  0.000  0.000  0.006
    8  0.006  0.000  0.000  0.006
tot    0.102  0.022  0.564  0.688
 
band    34 # energy    8.22921547 # occ.  0.00000000
 
ion      s      p      d    tot
    1  0.000  0.000  0.050  0.050
    2  0.000  0.000  0.050  0.050
    3  0.000  0.027  0.062  0.089
    4  0.000  0.027  0.062  0.089
    5  0.000  0.066  0.000  0.066
    6  0.000  0.066  0.000  0.066
    7  0.000  0.078  0.000  0.078
    8  0.000  0.078  0.000  0.078
tot    0.000  0.342  0.223  0.565
 
band    35 # energy    8.55639029 # occ.  0.00000000
 
ion      s      p      d    tot
    1  0.000  0.000  0.288  0.288
    2  0.000  0.000  0.288  0.288
    3  0.000  0.000  0.046  0.046
    4  0.000  0.000  0.046  0.046
    5  0.000  0.000  0.000  0.000
    6  0.000  0.000  0.000  0.000
    7  0.000  0.000  0.000  0.000
    8  0.000  0.000  0.000  0.000
tot    0.000  0.000  0.669  0.669
 

 k-point     3 :    0.22222222 0.00000000 0.00000000     weight = 0.00925926

band     1 # energy  -35.84565602 # occ.  2.00000000
 
ion      s      p      d    tot
    1  0.493  0.000  0.000  0.493
    2  0.493  0.000  0.000  0.493
    3  0.000  0.000  0.000  0.000
    4  0.000  0.000  0.000  0.000
    5  0.000  0.000  0.000  0.000
    6  0.000  0.000  0.000  0.000
    7  0.000  0.000  0.000  0.000
    8  0.000  0.000  0.000  0.000
tot    0.985  0.000  0.000  0.985
 
band     2 # energy  -35.83861237 # occ.  2.00000000
 
ion      s      p      d    tot
    1  0.493  0.000  0.000  0.493
    2  0.493  0.000  0.000  0.493
    3  0.000  0.000  0.000  0.000
    4  0.000  0.000  0.000  0.000
    5  0.000  0.000  0.000  0.000
    6  0.000  0.000  0.000  0.000
    7  0.000  0.000  0.000  0.000
    8  0.000  0.000  0.000  0.000
tot    0.986  0.000  0.000  0.986
 
band     3 # energy  -17.05815677 # occ.  2.00000000
 
ion      s      p      d    tot
    1  0.000  0.475  0.000  0.475
    2  0.000  0.475  0.000  0.475
    3  0.000  0.000  0.000  0.000
    4  0.000  0.000  0.000  0.000
    5  0.000  0.000  0.000  0.000
    6  0.000  0.000  0.000  0.000
    7  0.001  0.000  0.000  0.001
    8  0.001  0.000  0.000  0.001
tot    0.001  0.951  0.000  0.952
 
band     4 # energy  -16.94299112 # occ.  2.00000000
 
ion      s      p      d    tot
    1  0.000  0.482  0.000  0.482
    2  0.000  0.482  0.000  0.482
    3  0.000  0.000  0.000  0.000
    4  0.000  0.000  0.000  0.000
    5  0.000  0.000  0.000  0.000
    6  0.000  0.000  0.000  0.000
    7  0.000  0.000  0.000  0.000
    8  0.000  0.000  0.000  0.000
tot    0.000  0.963  0.000  0.963
 
band     5 # energy  -16.86085435 # occ.  2.00000000
 
ion      s      p      d    tot
    1  0.000  0.477  0.000  0.477
    2  0.000  0.477  0.000  0.477
    3  0.000  0.000  0.000  0.000
    4  0.000  0.000  0.000  0.000
    5  0.000  0.000  0.000  0.000
    6  0.000  0.000  0.000  0.000
    7  0.000  0.000  0.000  0.000
    8  0.000  0.000  0.000  0.000
tot    0.000  0.956  0.000  0.956
 