<?xml version="1.0" encoding="ISO-8859-1"?>
<modeling>
 <generator>
  <i name="program" type="string">vasp </i>
  <i name="version" type="string">5.4.4.18Apr17-6-g9f103f2a35  </i>
  <i name="subversion" type="string">(build Apr 24 2023 09:55:28) complex            parallel </i>
  <i name="platform" type="string">LinuxIFC </i>
  <i name="date" type="string">2024 04 01 </i>
  <i name="time" type="string">11:27:40 </i>
 </generator>
 <incar>
  <i type="string" name="SYSTEM"> DFT routine</i>
  <i type="int" name="ISTART">     0</i>
  <i type="string" name="PREC">acc</i>
  <i type="int" name="IALGO">    38</i>
  <i type="int" name="ICHARG">     2</i>
  <i type="int" name="NELM">   100</i>
  <i type="int" name="IBRION">     1</i>
  <i name="EDIFF">      0.00001000</i>
  <i name="EDIFFG">      0.00010000</i>
  <i type="int" name="NSW">    10</i>
  <i type="int" name="ISIF">     3</i>
  <i name="ENCUT">    400.00000000</i>
  <i name="POTIM">      0.10000000</i>
  <i type="logical" name="LREAL"> F  </i>
  <i type="int" name="ISMEAR">     0</i>
  <i name="SIGMA">      0.01000000</i>
  <i type="logical" name="LWAVE"> F  </i>
  <i type="logical" name="LCHARG"> F  </i>
  <i type="int" name="LORBIT">    10</i>
  <i type="logical" name="LELF"> F  </i>
  <v type="int" name="KPOINT_BSE">    -1     0     0     0</v>
  <i type="int" name="NELM">   100</i>
 </incar>
 <structure name="primitive_cell" >
  <crystal>
   <varray name="basis" >
    <v>       1.71965623       1.71965623       1.71965623 </v>
    <v>       1.71965623      -1.71965623      -1.71965623 </v>
    <v>      -1.71965623       1.71965623      -1.71965623 </v>
   </varray>
   <i name="volume">     20.34159021 </i>
   <varray name="rec_basis" >
    <v>       0.29075579       0.29075579       0.00000000 </v>
    <v>       0.29075579       0.00000000      -0.29075579 </v>
    <v>       0.00000000       0.29075579      -0.29075579 </v>
   </varray>
  </crystal>
  <varray name="positions" >
   <v>       0.00000000       0.00000000       0.00000000 </v>
  </varray>
 </structure>
 <varray name="primitive_index" >
  <v type="int" >        1 </v>
 </varray>
 <kpoints>
  <generation param="Auto">
   <i name="subdivisionlength">     30.00000000 </i>
   <v type="int" name="divisions">       9        9        9 </v>
   <v name="usershift">      0.00000000       0.00000000       0.00000000 </v>
   <v name="genvec1">      0.11111111       0.00000000       0.00000000 </v>
   <v name="genvec2">      0.00000000       0.11111111       0.00000000 </v>
   <v name="genvec3">      0.00000000       0.00000000       0.11111111 </v>
   <v name="shift">      0.00000000       0.00000000       0.00000000 </v>
  </generation>
  <varray name="kpointlist" >
   <v>       0.00000000       0.00000000       0.00000000 </v>
   <v>       0.11111111       0.00000000       0.00000000 </v>
   <v>       0.22222222       0.00000000       0.00000000 </v>
   <v>       0.33333333       0.00000000       0.00000000 </v>
   <v>       0.44444444       0.00000000       0.00000000 </v>
   <v>       0.11111111       0.11111111       0.00000000 </v>
   <v>       0.22222222       0.11111111       0.00000000 </v>
   <v>       0.33333333       0.11111111       0.00000000 </v>
   <v>       0.44444444       0.11111111       0.00000000 </v>
   <v>       0.22222222       0.22222222       0.00000000 </v>
   <v>       0.33333333       0.22222222       0.00000000 </v>
   <v>       0.44444444       0.22222222       0.00000000 </v>
   <v>       0.33333333       0.33333333       0.00000000 </v>
   <v>       0.44444444       0.33333333       0.00000000 </v>
   <v>       0.44444444       0.44444444       0.00000000 </v>
   <v>       0.11111111       0.11111111       0.11111111 </v>
   <v>       0.22222222       0.11111111       0.11111111 </v>
   <v>       0.33333333       0.11111111       0.11111111 </v>
   <v>       0.44444444       0.11111111       0.11111111 </v>
   <v>       0.22222222       0.22222222       0.11111111 </v>
   <v>       0.33333333       0.22222222       0.11111111 </v>
   <v>       0.44444444       0.22222222       0.11111111 </v>
   <v>       0.33333333       0.33333333       0.11111111 </v>
   <v>       0.44444444       0.33333333       0.11111111 </v>
   <v>       0.44444444       0.44444444       0.11111111 </v>
   <v>       0.22222222       0.22222222       0.22222222 </v>
   <v>       0.33333333       0.22222222       0.22222222 </v>
   <v>       0.44444444       0.22222222       0.22222222 </v>
   <v>       0.33333333       0.33333333       0.22222222 </v>
   <v>       0.44444444       0.33333333       0.22222222 </v>
   <v>       0.44444444       0.44444444       0.22222222 </v>
   <v>       0.33333333       0.33333333       0.33333333 </v>
   <v>       0.44444444       0.33333333       0.33333333 </v>
   <v>       0.44444444       0.44444444       0.33333333 </v>
   <v>       0.44444444       0.44444444       0.44444444 </v>
  </varray>
  <varray name="weights" >
   <v>       0.00137174 </v>
   <v>       0.00823045 </v>
   <v>       0.00823045 </v>
   <v>       0.00823045 </v>
   <v>       0.00823045 </v>
   <v>       0.01646091 </v>
   <v>       0.03292181 </v>
   <v>       0.03292181 </v>
   <v>       0.03292181 </v>
   <v>       0.01646091 </v>
   <v>       0.03292181 </v>
   <v>       0.03292181 </v>
   <v>       0.01646091 </v>
   <v>       0.03292181 </v>
   <v>       0.01646091 </v>
   <v>       0.01097394 </v>
   <v>       0.03292181 </v>
   <v>       0.03292181 </v>
   <v>       0.03292181 </v>
   <v>       0.03292181 </v>
   <v>       0.06584362 </v>
   <v>       0.06584362 </v>
   <v>       0.03292181 </v>
   <v>       0.06584362 </v>
   <v>       0.03292181 </v>
   <v>       0.01097394 </v>
   <v>       0.03292181 </v>
   <v>       0.03292181 </v>
   <v>       0.03292181 </v>
   <v>       0.06584362 </v>
   <v>       0.03292181 </v>
   <v>       0.01097394 </v>
   <v>       0.03292181 </v>
   <v>       0.03292181 </v>
   <v>       0.01097394 </v>
  </varray>
 </kpoints>
 <parameters>
  <separator name="general" >
   <i type="string" name="SYSTEM">DFT routine</i>
   <i type="logical" name="LCOMPAT"> F  </i>
  </separator>
  <separator name="electronic" >
   <i type="string" name="PREC">acc</i>
   <i name="ENMAX">    400.00000000</i>
   <i name="ENAUG">    331.63800000</i>
   <i name="EDIFF">      0.00001000</i>
   <i type="int" name="IALGO">    38</i>
   <i type="int" name="IWAVPR">    11</i>
   <i type="int" name="NBANDS">     5</i>
   <i name="NELECT">      2.00000000</i>
   <i type="int" name="TURBO">     0</i>
   <i type="int" name="IRESTART">     0</i>
   <i type="int" name="NREBOOT">     0</i>
   <i type="int" name="NMIN">     0</i>
   <i name="EREF">      0.00000000</i>
   <separator name="electronic smearing" >
    <i type="int" name="ISMEAR">     0</i>
    <i name="SIGMA">      0.01000000</i>
    <i name="KSPACING">      0.50000000</i>
    <i type="logical" name="KGAMMA"> T  </i>
   </separator>
   <separator name="electronic projectors" >
    <i type="logical" name="LREAL"> F  </i>
    <v name="ROPT">      0.00000000</v>
    <i type="int" name="LMAXPAW">  -100</i>
    <i type="int" name="LMAXMIX">     2</i>
    <i type="logical" name="NLSPLINE"> F  </i>
   </separator>
   <separator name="electronic startup" >
    <i type="int" name="ISTART">     0</i>
    <i type="int" name="ICHARG">     2</i>
    <i type="int" name="INIWAV">     1</i>
   </separator>
   <separator name="electronic spin" >
    <i type="int" name="ISPIN">     1</i>
    <i type="logical" name="LNONCOLLINEAR"> F  </i>
    <v name="MAGMOM">      1.00000000      1.00000000</v>
    <i name="NUPDOWN">     -1.00000000</i>
    <i type="logical" name="LSORBIT"> F  </i>
    <v name="SAXIS">      0.00000000      0.00000000      1.00000000</v>
    <i type="logical" name="LSPIRAL"> F  </i>
    <v name="QSPIRAL">      0.00000000      0.00000000      0.00000000</v>
    <i type="logical" name="LZEROZ"> F  </i>
   </separator>
   <separator name="electronic exchange-correlation" >
    <i type="logical" name="LASPH"> F  </i>
    <i type="logical" name="LMETAGGA"> F  </i>
   </separator>
   <separator name="electronic convergence" >
    <i type="int" name="NELM">   100</i>
    <i type="int" name="NELMDL">    -5</i>
    <i type="int" name="NELMIN">     2</i>
    <i name="ENINI">    400.00000000</i>
    <separator name="electronic convergence detail" >
     <i type="logical" name="LDIAG"> T  </i>
     <i type="logical" name="LSUBROT"> F  </i>
     <i name="WEIMIN">      0.00100000</i>
     <i name="EBREAK">      0.00000050</i>
     <i name="DEPER">      0.30000000</i>
     <i type="int" name="NRMM">     4</i>
     <i name="TIME">      0.40000000</i>
    </separator>
   </separator>
   <separator name="electronic mixer" >
    <i name="AMIX">      0.40000000</i>
    <i name="BMIX">      1.00000000</i>
    <i name="AMIN">      0.10000000</i>
    <i name="AMIX_MAG">      1.60000000</i>
    <i name="BMIX_MAG">      1.00000000</i>
    <separator name="electronic mixer details" >
     <i type="int" name="IMIX">     4</i>
     <i type="logical" name="MIXFIRST"> F  </i>
     <i type="int" name="MAXMIX">   -45</i>
     <i name="WC">    100.00000000</i>
     <i type="int" name="INIMIX">     1</i>
     <i type="int" name="MIXPRE">     1</i>
     <i type="int" name="MREMOVE">     5</i>
    </separator>
   </separator>
   <separator name="electronic dipolcorrection" >
    <i type="logical" name="LDIPOL"> F  </i>
    <i type="logical" name="LMONO"> F  </i>
    <i type="int" name="IDIPOL">     0</i>
    <i name="EPSILON">      1.00000000</i>
    <v name="DIPOL">   -100.00000000   -100.00000000   -100.00000000</v>
    <i name="EFIELD">      0.00000000</i>
   </separator>
  </separator>
  <separator name="grids" >
   <i type="int" name="NGX">    24</i>
   <i type="int" name="NGY">    24</i>
   <i type="int" name="NGZ">    24</i>
   <i type="int" name="NGXF">    48</i>
   <i type="int" name="NGYF">    48</i>
   <i type="int" name="NGZF">    48</i>
   <i type="logical" name="ADDGRID"> F  </i>
  </separator>
  <separator name="ionic" >
   <i type="int" name="NSW">    10</i>
   <i type="int" name="IBRION">     1</i>
   <i type="int" name="MDALGO">     0</i>
   <i type="int" name="ISIF">     3</i>
   <i name="PSTRESS">      0.00000000</i>
   <i name="EDIFFG">      0.00010000</i>
   <i type="int" name="NFREE">     0</i>
   <i name="POTIM">      0.10000000</i>
   <i name="SMASS">     -3.00000000</i>
   <i name="SCALEE">      1.00000000</i>
  </separator>
  <separator name="ionic md" >
   <i name="TEBEG">      0.00010000</i>
   <i name="TEEND">      0.00010000</i>
   <i type="int" name="NBLOCK">     1</i>
   <i type="int" name="KBLOCK">    10</i>
   <i type="int" name="NPACO">   256</i>
   <i name="APACO">     16.00000000</i>
  </separator>
  <separator name="symmetry" >
   <i type="int" name="ISYM">     2</i>
   <i name="SYMPREC">      0.00001000</i>
  </separator>
  <separator name="dos" >
   <i type="int" name="LORBIT">    10</i>
   <v name="RWIGS">     -1.00000000</v>
   <i type="int" name="NEDOS">   301</i>
   <i name="EMIN">     10.00000000</i>
   <i name="EMAX">    -10.00000000</i>
   <i name="EFERMI">      0.00000000</i>
  </separator>
  <separator name="writing" >
   <i type="int" name="NWRITE">     2</i>
   <i type="logical" name="LWAVE"> F  </i>
   <i type="logical" name="LDOWNSAMPLE"> F  </i>
   <i type="logical" name="LCHARG"> F  </i>
   <i type="logical" name="LPARD"> F  </i>
   <i type="logical" name="LVTOT"> F  </i>
   <i type="logical" name="LVHAR"> F  </i>
   <i type="logical" name="LELF"> F  </i>
   <i type="logical" name="LOPTICS"> F  </i>
   <v name="STM">      0.00000000      0.00000000      0.00000000      0.00000000      0.00000000      0.00000000      0.00000000</v>
  </separator>
  <separator name="performance" >
   <i type="int" name="NPAR">     5</i>
   <i type="int" name="NSIM">     4</i>
   <i type="int" name="NBLK">    -1</i>
   <i type="logical" name="LPLANE"> T  </i>
   <i type="logical" name="LSCALAPACK"> T  </i>
   <i type="logical" name="LSCAAWARE"> F  </i>
   <i type="logical" name="LSCALU"> F  </i>
   <i type="logical" name="LASYNC"> F  </i>
   <i type="logical" name="LORBITALREAL"> F  </i>
  </separator>
  <separator name="miscellaneous" >
   <i type="int" name="IDIOT">     3</i>
   <i type="int" name="ISPECIAL">     0</i>
   <i type="logical" name="LMUSIC"> F  </i>
   <v name="POMASS">      7.01000000</v>
   <v name="DARWINR">      0.00000000</v>
   <v name="DARWINV">      1.00000000</v>
   <i type="logical" name="LCORR"> T  </i>
  </separator>
  <i type="logical" name="GGA_COMPAT"> T  </i>
  <i type="logical" name="LBERRY"> F  </i>
  <i type="int" name="ICORELEVEL">     0</i>
  <i type="logical" name="LDAU"> F  </i>
  <i type="int" name="I_CONSTRAINED_M">     0</i>
  <separator name="electronic exchange-correlation" >
   <i type="string" name="GGA">--</i>
   <i type="int" name="VOSKOWN">     0</i>
   <i type="logical" name="LHFCALC"> F  </i>
   <i type="string" name="PRECFOCK"></i>
   <i type="logical" name="LSYMGRAD"> F  </i>
   <i type="logical" name="LHFONE"> F  </i>
   <i type="logical" name="LRHFCALC"> F  </i>
   <i type="logical" name="LTHOMAS"> F  </i>
   <i type="logical" name="LMODELHF"> F  </i>
   <i name="ENCUT4O">     -1.00000000</i>
   <i type="int" name="EXXOEP">     0</i>
   <i type="int" name="FOURORBIT">     0</i>
   <i name="AEXX">      0.00000000</i>
   <i name="HFALPHA">      0.00000000</i>
   <i name="MCALPHA">      0.00000000</i>
   <i name="ALDAX">      1.00000000</i>
   <i name="AGGAX">      1.00000000</i>
   <i name="ALDAC">      1.00000000</i>
   <i name="AGGAC">      1.00000000</i>
   <i type="int" name="NKREDX">     1</i>
   <i type="int" name="NKREDY">     1</i>
   <i type="int" name="NKREDZ">     1</i>
   <i type="logical" name="SHIFTRED"> F  </i>
   <i type="logical" name="ODDONLY"> F  </i>
   <i type="logical" name="EVENONLY"> F  </i>
   <i type="int" name="LMAXFOCK">     0</i>
   <i type="int" name="NMAXFOCKAE">     0</i>
   <i type="logical" name="LFOCKAEDFT"> F  </i>
   <i name="HFSCREEN">      0.00000000</i>
   <i name="HFSCREENC">      0.00000000</i>
   <i type="int" name="NBANDSGWLOW">     0</i>
  </separator>
  <separator name="vdW DFT" >
   <i type="logical" name="LUSE_VDW"> F  </i>
   <i name="Zab_VDW">     -0.84910000</i>
   <i name="PARAM1">      0.12340000</i>
   <i name="PARAM2">      1.00000000</i>
   <i name="PARAM3">      0.00000000</i>
  </separator>
  <separator name="model GW" >
   <i type="int" name="MODEL_GW">     0</i>
   <i name="MODEL_EPS0">     12.20495412</i>
   <i name="MODEL_ALPHA">      1.00000000</i>
  </separator>
  <separator name="linear response parameters" >
   <i type="logical" name="LEPSILON"> F  </i>
   <i type="logical" name="LRPA"> F  </i>
   <i type="logical" name="LNABLA"> F  </i>
   <i type="logical" name="LVEL"> F  </i>
   <i type="int" name="KINTER">     0</i>
   <i name="CSHIFT">      0.10000000</i>
   <i name="OMEGAMAX">     -1.00000000</i>
   <i name="DEG_THRESHOLD">      0.00200000</i>
   <i name="RTIME">     -0.10000000</i>
   <i name="WPLASMAI">      0.00000000</i>
   <v name="DFIELD">      0.00000000      0.00000000      0.00000000</v>
   <v name="WPLASMA">      0.00000000      0.00000000      0.00000000      0.00000000      0.00000000      0.00000000      0.00000000      0.00000000      0.00000000</v>
  </separator>
  <separator name="orbital magnetization" >
   <i type="logical" name="NUCIND"> F  </i>
   <v name="MAGPOS">      0.00000000      0.00000000      0.00000000</v>
   <i type="logical" name="LNICSALL"> T  </i>
   <i type="logical" name="ORBITALMAG"> F  </i>
   <i type="logical" name="LMAGBLOCH"> F  </i>
   <i type="logical" name="LCHIMAG"> F  </i>
   <i type="logical" name="LGAUGE"> T  </i>
   <i type="int" name="MAGATOM">     0</i>
   <v name="MAGDIPOL">      0.00000000      0.00000000      0.00000000</v>
   <v name="AVECCONST">      0.00000000      0.00000000      0.00000000</v>
  </separator>
  <separator name="response functions" >
   <i type="logical" name="LADDER"> F  </i>
   <i type="logical" name="LRPAFORCE"> F  </i>
   <i type="logical" name="LFXC"> F  </i>
   <i type="logical" name="LHARTREE"> T  </i>
   <i type="int" name="IBSE">     0</i>
   <v type="int" name="KPOINT">    -1     0     0     0</v>
   <i type="logical" name="LTCTE"> F  </i>
   <i type="logical" name="LTETE"> F  </i>
   <i type="logical" name="LTRIPLET"> F  </i>
   <i type="logical" name="LFXCEPS"> F  </i>
   <i type="logical" name="LFXHEG"> F  </i>
   <i type="int" name="NATURALO">     2</i>
   <i type="logical" name="L2ORDER"> F  </i>
   <i type="logical" name="LMP2LT"> F  </i>
   <i type="logical" name="LUSEW"> F  </i>
   <i name="ENCUTGW">     -2.00000000</i>
   <i name="ENCUTGWSOFT">     -2.00000000</i>
   <i name="ENCUTLF">     -1.00000000</i>
   <i type="int" name="LMAXMP2">    -1</i>
   <i name="SCISSOR">      0.00000000</i>
   <i type="int" name="NOMEGA">     0</i>
   <i type="int" name="NOMEGAR">     0</i>
   <i type="int" name="NBANDSGW">    -1</i>
   <i type="int" name="NBANDSO">    -1</i>
   <i type="int" name="NBANDSV">    -1</i>
   <i type="int" name="NELM">   100</i>
   <i type="int" name="NELMHF">     1</i>
   <i type="int" name="DIM">     3</i>
   <i type="int" name="ANTIRES">     0</i>
   <i name="OMEGAMAX">    -30.00000000</i>
   <i name="OMEGAMIN">    -30.00000000</i>
   <i name="OMEGATL">   -200.00000000</i>
   <i type="int" name="OMEGAGRID">   140</i>
   <i name="CSHIFT">     -0.10000000</i>
   <i type="logical" name="SELFENERGY"> F  </i>
   <i type="logical" name="LSPECTRAL"> F  </i>
   <i type="logical" name="LSPECTRALGW"> F  </i>
   <i type="logical" name="LSINGLES"> F  </i>
   <i type="logical" name="LFERMIGW"> F  </i>
   <i type="logical" name="ODDONLYGW"> F  </i>
   <i type="logical" name="EVENONLYGW"> F  </i>
   <i type="int" name="NKREDLFX">     1</i>
   <i type="int" name="NKREDLFY">     1</i>
   <i type="int" name="NKREDLFZ">     1</i>
   <i type="int" name="MAXMEM">  2800</i>
   <i type="int" name="TELESCOPE">     0</i>
   <i type="int" name="TAUPAR">     1</i>
   <i type="int" name="OMEGAPAR">    -1</i>
   <i name="LAMBDA">      1.00000000</i>
  </separator>
  <separator name="External order field" >
   <i name="OFIELD_KAPPA">      0.00000000</i>
   <v name="OFIELD_K">      0.00000000      0.00000000      0.00000000</v>
   <i name="OFIELD_Q6_NEAR">      0.00000000</i>
   <i name="OFIELD_Q6_FAR">      0.00000000</i>
   <i name="OFIELD_A">      0.00000000</i>
  </separator>
 </parameters>
 <atominfo>
  <atoms>       2 </atoms>
  <types>       1 </types>
  <array name="atoms" >
   <dimension dim="1">ion</dimension>
   <field type="string">element</field>
   <field type="int">atomtype</field>
   <set>
    <rc><c>Li</c><c>   1</c></rc>
    <rc><c>Li</c><c>   1</c></rc>
   </set>
  </array>
  <array name="atomtypes" >
   <dimension dim="1">type</dimension>
   <field type="int">atomspertype</field>
   <field type="string">element</field>
   <field>mass</field>
   <field>valence</field>
   <field type="string">pseudopotential</field>
   <set>
    <rc><c>   2</c><c>Li</c><c>      7.01000000</c><c>      1.00000000</c><c>  PAW_PBE Li 17Jan2003                  </c></rc>
   </set>
  </array>
 </atominfo>
 <structure name="initialpos" >
  <crystal>
   <varray name="basis" >
    <v>       3.43931245       0.00000000       0.00000000 </v>
    <v>       0.00000000       3.43931245       0.00000000 </v>
    <v>       0.00000000       0.00000000       3.43931245 </v>
   </varray>
   <i name="volume">     40.68318042 </i>
   <varray name="rec_basis" >
    <v>       0.29075579      -0.00000000       0.00000000 </v>
    <v>       0.00000000       0.29075579       0.00000000 </v>
    <v>      -0.00000000      -0.00000000       0.29075579 </v>
   </varray>
  </crystal>
  <varray name="positions" >
   <v>       0.00000000       0.00000000       0.00000000 </v>
   <v>       0.50000000       0.50000000       0.50000000 </v>
  </varray>
 </structure>
 <calculation>
  <scstep>
   <time name="dav">    0.05    0.05</time>
   <time name="total">    0.07    0.07</time>
   <energy>
    <i name="alphaZ">      0.25757056 </i>
    <i name="ewald">    -15.23682077 </i>
    <i name="hartreedc">     -0.00902319 </i>
    <i name="XCdc">     -8.55173435 </i>
    <i name="pawpsdc">     15.32523118 </i>
    <i name="pawaedc">     -4.20845459 </i>
    <i name="eentropy">     -0.00007148 </i>
    <i name="bandstr">     -1.36739402 </i>
    <i name="atom">     10.60017774 </i>
    <i name="e_fr_energy">     -3.19051891 </i>
    <i name="e_wo_entrp">     -3.19044744 </i>
    <i name="e_0_energy">     -3.19048317 </i>
   </energy>
  </scstep>
  <scstep>
   <time name="dav">    0.06    0.06</time>
   <time name="total">    0.06    0.06</time>
   <energy>
    <i name="e_fr_energy">     -3.79110562 </i>
    <i name="e_wo_entrp">     -3.79073616 </i>
    <i name="e_0_energy">     -3.79092089 </i>
   </energy>
  </scstep>
  <scstep>
   <time name="dav">    0.06    0.06</time>
   <time name="total">    0.06    0.06</time>
   <energy>
    <i name="e_fr_energy">     -3.79896254 </i>
    <i name="e_wo_entrp">     -3.79859308 </i>
    <i name="e_0_energy">     -3.79877781 </i>
   </energy>
  </scstep>
  <scstep>
   <time name="dav">    0.06    0.06</time>
   <time name="total">    0.07    0.07</time>
   <energy>
    <i name="e_fr_energy">     -3.79900266 </i>
    <i name="e_wo_entrp">     -3.79863320 </i>
    <i name="e_0_energy">     -3.79881793 </i>
   </energy>
  </scstep>
  <scstep>
   <time name="dav">    0.06    0.06</time>
   <time name="total">    0.07    0.07</time>
   <energy>
    <i name="e_fr_energy">     -3.79900288 </i>
    <i name="e_wo_entrp">     -3.79863342 </i>
    <i name="e_0_energy">     -3.79881815 </i>
   </energy>
  </scstep>
  <scstep>
   <time name="dav">    0.05    0.05</time>
   <time name="total">    0.07    0.07</time>
   <energy>
    <i name="e_fr_energy">     -3.79703743 </i>
    <i name="e_wo_entrp">     -3.79666797 </i>
    <i name="e_0_energy">     -3.79685270 </i>
   </energy>
  </scstep>
  <scstep>
   <time name="dav">    0.05    0.05</time>
   <time name="total">    0.06    0.06</time>
   <energy>
    <i name="e_fr_energy">     -3.79577906 </i>
    <i name="e_wo_entrp">     -3.79540960 </i>
    <i name="e_0_energy">     -3.79559433 </i>
   </energy>
  </scstep>
  <scstep>
   <time name="dav">    0.05    0.05</time>
   <time name="total">    0.06    0.06</time>
   <energy>
    <i name="e_fr_energy">     -3.79573589 </i>
    <i name="e_wo_entrp">     -3.79536643 </i>
    <i name="e_0_energy">     -3.79555116 </i>
   </energy>
  </scstep>
  <scstep>
   <time name="dav">    0.03    0.03</time>
   <time name="total">    0.04    0.04</time>
   <energy>
    <i name="alphaZ">      0.25757056 </i>
    <i name="ewald">    -15.23682077 </i>
    <i name="hartreedc">     -0.02577589 </i>
    <i name="XCdc">     -8.50236315 </i>
    <i name="pawpsdc">     18.50565848 </i>
    <i name="pawaedc">     -7.40401979 </i>
    <i name="eentropy">     -0.00036946 </i>
    <i name="bandstr">     -1.98978640 </i>
    <i name="atom">     10.60017774 </i>
    <i name="e_fr_energy">     -3.79572868 </i>
    <i name="e_wo_entrp">     -3.79535922 </i>
    <i name="e_0_energy">     -3.79554395 </i>
   </energy>
  </scstep>
  <structure>
   <crystal>
    <varray name="basis" >
     <v>       3.43931245       0.00000000       0.00000000 </v>
     <v>       0.00000000       3.43931245       0.00000000 </v>
     <v>       0.00000000       0.00000000       3.43931245 </v>
    </varray>
    <i name="volume">     40.68318042 </i>
    <varray name="rec_basis" >
     <v>       0.29075579      -0.00000000       0.00000000 </v>
     <v>       0.00000000       0.29075579       0.00000000 </v>
     <v>      -0.00000000      -0.00000000       0.29075579 </v>
    </varray>
   </crystal>
   <varray name="positions" >
    <v>       0.00000000       0.00000000       0.00000000 </v>
    <v>       0.50000000       0.50000000       0.50000000 </v>
   </varray>
  </structure>
  <varray name="forces" >
   <v>       0.00000000       0.00000000       0.00000000 </v>
   <v>      -0.00000000      -0.00000000      -0.00000000 </v>
  </varray>
  <varray name="stress" >
   <v>       0.35562757      -0.00000000      -0.00000000 </v>
   <v>      -0.00000000       0.35562757       0.00000000 </v>
   <v>      -0.00000000      -0.00000000       0.35562757 </v>
  </varray>
  <energy>
   <i name="e_fr_energy">     -3.79572868 </i>
   <i name="e_wo_entrp">     -3.79554395 </i>
   <i name="e_0_energy">     -0.00036946 </i>
  </energy>
  <time name="totalsc">    0.59    0.59</time>
  <eigenvalues>
   <array>
    <dimension dim="1">band</dimension>
    <dimension dim="2">kpoint</dimension>
    <dimension dim="3">spin</dimension>
    <field>eigene</field>
    <field>occ</field>
    <set>
     <set comment="spin 1">
      <set comment="kpoint 1">
       <r>   -3.1809    1.0000 </r>
       <r>    5.9028    0.0000 </r>
       <r>    5.9028    0.0000 </r>
       <r>    5.9028    0.0000 </r>
       <r>    8.1472    0.0000 </r>
      </set>
      <set comment="kpoint 2">
       <r>   -3.0633    1.0000 </r>
       <r>    4.5746    0.0000 </r>
       <r>    6.0536    0.0000 </r>
       <r>    6.0536    0.0000 </r>
       <r>    8.3040    0.0000 </r>
      </set>
      <set comment="kpoint 3">
       <r>   -2.7094    1.0000 </r>
       <r>    2.7727    0.0000 </r>
       <r>    6.5053    0.0000 </r>
       <r>    6.5053    0.0000 </r>
       <r>    8.7747    0.0000 </r>
      </set>
      <set comment="kpoint 4">
       <r>   -2.1152    1.0000 </r>
       <r>    1.1691    0.0000 </r>
       <r>    7.2547    0.0000 </r>
       <r>    7.2547    0.0000 </r>
       <r>    9.5590    0.0000 </r>
      </set>
      <set comment="kpoint 5">
       <r>   -1.2749    1.0000 </r>
       <r>   -0.1817    1.0000 </r>
       <r>    8.2949    0.0000 </r>
       <r>    8.2949    0.0000 </r>
       <r>    9.6110    0.0000 </r>
      </set>
      <set comment="kpoint 6">
       <r>   -2.9459    1.0000 </r>
       <r>    4.3136    0.0000 </r>
       <r>    5.2278    0.0000 </r>
       <r>    6.2041    0.0000 </r>
       <r>    9.2377    0.0000 </r>
      </set>
      <set comment="kpoint 7">
       <r>   -2.5925    1.0000 </r>
       <r>    2.8099    0.0000 </r>
       <r>    5.4204    0.0000 </r>
       <r>    6.6546    0.0000 </r>
       <r>    9.9036    0.0000 </r>
      </set>
      <set comment="kpoint 8">
       <r>   -1.9999    1.0000 </r>
       <r>    1.2548    0.0000 </r>
       <r>    6.1312    0.0000 </r>
       <r>    7.4013    0.0000 </r>
       <r>    9.9997    0.0000 </r>
      </set>
      <set comment="kpoint 9">
       <r>   -1.1633    1.0000 </r>
       <r>   -0.0782    1.0000 </r>
       <r>    7.1512    0.0000 </r>
       <r>    8.4360    0.0000 </r>
       <r>    8.4512    0.0000 </r>
      </set>
      <set comment="kpoint 10">
       <r>   -2.2416    1.0000 </r>
       <r>    2.5449    0.0000 </r>
       <r>    4.3938    0.0000 </r>
       <r>    7.1008    0.0000 </r>
       <r>    9.9445    0.0000 </r>
      </set>
      <set comment="kpoint 11">
       <r>   -1.6555    1.0000 </r>
       <r>    1.4359    0.0000 </r>
       <r>    4.6511    0.0000 </r>
       <r>    7.8383    0.0000 </r>
       <r>    8.2441    0.0000 </r>
      </set>
      <set comment="kpoint 12">
       <r>   -0.8350    1.0000 </r>
       <r>    0.2114    1.0000 </r>
       <r>    5.5355    0.0000 </r>
       <r>    6.7559    0.0000 </r>
       <r>    8.8522    0.0000 </r>
      </set>
      <set comment="kpoint 13">
       <r>   -1.0881    1.0000 </r>
       <r>    1.3297    0.0000 </r>
       <r>    3.8766    0.0000 </r>
       <r>    6.6202    0.0000 </r>
       <r>    8.5535    0.0000 </r>
      </set>
      <set comment="kpoint 14">
       <r>   -0.3172    1.0000 </r>
       <r>    0.5857    0.0000 </r>
       <r>    4.2330    0.0000 </r>
       <r>    5.2487    0.0000 </r>
       <r>    9.5122    0.0000 </r>
      </set>
      <set comment="kpoint 15">
       <r>    0.2991    1.0000 </r>
       <r>    0.7175    0.0000 </r>
       <r>    3.6501    0.0000 </r>
       <r>    4.1075    0.0000 </r>
       <r>   10.3044    0.0000 </r>
      </set>
      <set comment="kpoint 16">
       <r>   -2.8286    1.0000 </r>
       <r>    4.4669    0.0000 </r>
       <r>    4.4669    0.0000 </r>
       <r>    6.0684    0.0000 </r>
       <r>   10.5105    0.0000 </r>
      </set>
      <set comment="kpoint 17">
       <r>   -2.4755    1.0000 </r>
       <r>    2.8831    0.0000 </r>
       <r>    4.9263    0.0000 </r>
       <r>    6.4046    0.0000 </r>
       <r>   10.9715    0.0000 </r>
      </set>
      <set comment="kpoint 18">
       <r>   -1.8839    1.0000 </r>
       <r>    1.3496    0.0000 </r>
       <r>    5.6904    0.0000 </r>
       <r>    7.0739    0.0000 </r>
       <r>    9.7511    0.0000 </r>
      </set>
      <set comment="kpoint 19">
       <r>   -1.0501    1.0000 </r>
       <r>    0.0289    1.0000 </r>
       <r>    6.7557    0.0000 </r>
       <r>    8.0116    0.0000 </r>
       <r>    8.1148    0.0000 </r>
      </set>
      <set comment="kpoint 20">
       <r>   -2.1240    1.0000 </r>
       <r>    2.6991    0.0000 </r>
       <r>    4.1152    0.0000 </r>
       <r>    6.6416    0.0000 </r>
       <r>    9.9960    0.0000 </r>
      </set>
      <set comment="kpoint 21">
       <r>   -1.5375    1.0000 </r>
       <r>    1.5609    0.0000 </r>
       <r>    4.5058    0.0000 </r>
       <r>    7.2626    0.0000 </r>
       <r>    8.2679    0.0000 </r>
      </set>
      <set comment="kpoint 22">
       <r>   -0.7169    1.0000 </r>
       <r>    0.3296    0.5417 </r>
       <r>    5.4601    0.0000 </r>
       <r>    6.7331    0.0000 </r>
       <r>    8.1548    0.0000 </r>
      </set>
      <set comment="kpoint 23">
       <r>   -0.9667    1.0000 </r>
       <r>    1.4842    0.0000 </r>
       <r>    3.8016    0.0000 </r>
       <r>    6.6670    0.0000 </r>
       <r>    7.8560    0.0000 </r>
      </set>
      <set comment="kpoint 24">
       <r>   -0.1903    1.0000 </r>
       <r>    0.7242    0.0000 </r>
       <r>    4.2227    0.0000 </r>
       <r>    5.2787    0.0000 </r>
       <r>    8.7118    0.0000 </r>
      </set>
      <set comment="kpoint 25">
       <r>    0.4406    0.0000 </r>
       <r>    0.8722    0.0000 </r>
       <r>    3.6560    0.0000 </r>
       <r>    4.1359    0.0000 </r>
       <r>    9.5071    0.0000 </r>
      </set>
      <set comment="kpoint 26">
       <r>   -1.7715    1.0000 </r>
       <r>    3.1614    0.0000 </r>
       <r>    3.1614    0.0000 </r>
       <r>    6.4072    0.0000 </r>
       <r>    9.9924    0.0000 </r>
      </set>
      <set comment="kpoint 27">
       <r>   -1.1853    1.0000 </r>
       <r>    1.8845    0.0000 </r>
       <r>    3.9309    0.0000 </r>
       <r>    6.7432    0.0000 </r>
       <r>    8.0516    0.0000 </r>
      </set>
      <set comment="kpoint 28">
       <r>   -0.3688    1.0000 </r>
       <r>    0.6665    0.0000 </r>
       <r>    5.0058    0.0000 </r>
       <r>    6.3822    0.0000 </r>
       <r>    7.4055    0.0000 </r>
      </set>
      <set comment="kpoint 29">
       <r>   -0.6055    1.0000 </r>
       <r>    1.9477    0.0000 </r>
       <r>    3.4666    0.0000 </r>
       <r>    6.7815    0.0000 </r>
       <r>    6.8858    0.0000 </r>
      </set>
      <set comment="kpoint 30">
       <r>    0.1844    1.0000 </r>
       <r>    1.1291    0.0000 </r>
       <r>    4.1310    0.0000 </r>
       <r>    5.3315    0.0000 </r>
       <r>    7.4226    0.0000 </r>
      </set>
      <set comment="kpoint 31">
       <r>    0.8600    0.0000 </r>
       <r>    1.3361    0.0000 </r>
       <r>    3.6547    0.0000 </r>
       <r>    4.2183    0.0000 </r>
       <r>    7.8514    0.0000 </r>
      </set>
      <set comment="kpoint 32">
       <r>   -0.0145    1.0000 </r>
       <r>    2.7195    0.0000 </r>
       <r>    2.7195    0.0000 </r>
       <r>    6.4681    0.0000 </r>
       <r>    6.8637    0.0000 </r>
      </set>
      <set comment="kpoint 33">
       <r>    0.7836    0.0000 </r>
       <r>    1.7374    0.0000 </r>
       <r>    3.7983    0.0000 </r>
       <r>    5.1815    0.0000 </r>
       <r>    6.5363    0.0000 </r>
      </set>
      <set comment="kpoint 34">
       <r>    1.5356    0.0000 </r>
       <r>    2.1088    0.0000 </r>
       <r>    3.5683    0.0000 </r>
       <r>    4.3529    0.0000 </r>
       <r>    6.2390    0.0000 </r>
      </set>
      <set comment="kpoint 35">
       <r>    2.3944    0.0000 </r>
       <r>    3.1891    0.0000 </r>
       <r>    3.1891    0.0000 </r>
       <r>    4.5750    0.0000 </r>
       <r>    4.5750    0.0000 </r>
      </set>
     </set>
    </set>
   </array>
  </eigenvalues>
  <separator name="orbital magnetization" >
   <v name="MAGDIPOLOUT">      0.00000000      0.00000000      0.00000000</v>
  </separator>
  <dos>
   <i name="efermi">      0.33035736 </i>
   <total>
    <array>
     <dimension dim="1">gridpoints</dimension>
     <dimension dim="2">spin</dimension>
     <field>energy</field>
     <field>total</field>
     <field>integrated</field>
     <set>
      <set comment="spin 1">
       <r>    -3.8885     0.0000     0.0000 </r>
       <r>    -3.8366     0.0000     0.0000 </r>
       <r>    -3.7847     0.0000     0.0000 </r>
       <r>    -3.7328     0.0000     0.0000 </r>
       <r>    -3.6809     0.0000     0.0000 </r>
       <r>    -3.6290     0.0000     0.0000 </r>
       <r>    -3.5771     0.0000     0.0000 </r>
       <r>    -3.5252     0.0000     0.0000 </r>
       <r>    -3.4733     0.0000     0.0000 </r>
       <r>    -3.4215     0.0000     0.0000 </r>
       <r>    -3.3696     0.0000     0.0000 </r>
       <r>    -3.3177     0.0000     0.0000 </r>
       <r>    -3.2658     0.0000     0.0000 </r>
       <r>    -3.2139     0.0000     0.0000 </r>
       <r>    -3.1620     0.0527     0.0027 </r>
       <r>    -3.1101     0.0002     0.0027 </r>
       <r>    -3.0582     0.2430     0.0154 </r>
       <r>    -3.0063     0.0742     0.0192 </r>
       <r>    -2.9544     0.0728     0.0230 </r>
       <r>    -2.9025     0.5616     0.0521 </r>
       <r>    -2.8506     0.0004     0.0521 </r>
       <r>    -2.7988     0.4226     0.0741 </r>
       <r>    -2.7469     0.0000     0.0741 </r>
       <r>    -2.6950     0.3106     0.0902 </r>
       <r>    -2.6431     0.0066     0.0905 </r>
       <r>    -2.5912     0.7310     0.1285 </r>
       <r>    -2.5393     0.5379     0.1564 </r>
       <r>    -2.4874     0.0583     0.1594 </r>
       <r>    -2.4355     1.2106     0.2222 </r>
       <r>    -2.3836     0.0000     0.2222 </r>
       <r>    -2.3317     0.0000     0.2222 </r>
       <r>    -2.2798     0.0000     0.2222 </r>
       <r>    -2.2279     0.6173     0.2543 </r>
       <r>    -2.1760     0.0171     0.2551 </r>
       <r>    -2.1242     0.6552     0.2891 </r>
       <r>    -2.0723     0.9309     0.3374 </r>
       <r>    -2.0204     0.0024     0.3376 </r>
       <r>    -1.9685     1.2664     0.4033 </r>
       <r>    -1.9166     0.0000     0.4033 </r>
       <r>    -1.8647     1.2647     0.4689 </r>
       <r>    -1.8128     0.0041     0.4691 </r>
       <r>    -1.7609     0.3948     0.4896 </r>
       <r>    -1.7090     0.0281     0.4911 </r>
       <r>    -1.6571     0.5200     0.5181 </r>
       <r>    -1.6052     0.7489     0.5569 </r>
       <r>    -1.5533     0.0319     0.5586 </r>
       <r>    -1.5015     2.5058     0.6886 </r>
       <r>    -1.4496     0.0000     0.6886 </r>
       <r>    -1.3977     0.0000     0.6886 </r>
       <r>    -1.3458     0.0000     0.6886 </r>
       <r>    -1.2939     0.0011     0.6887 </r>
       <r>    -1.2420     0.3161     0.7051 </r>
       <r>    -1.1901     0.3145     0.7214 </r>
       <r>    -1.1382     2.2229     0.8367 </r>
       <r>    -1.0863     0.3805     0.8565 </r>
       <r>    -1.0344     1.5063     0.9347 </r>
       <r>    -0.9825     0.0328     0.9364 </r>
       <r>    -0.9306     1.2528     1.0014 </r>
       <r>    -0.8788     0.0000     1.0014 </r>
       <r>    -0.8269     1.1096     1.0589 </r>
       <r>    -0.7750     0.1593     1.0672 </r>
       <r>    -0.7231     0.4884     1.0926 </r>
       <r>    -0.6712     2.0493     1.1989 </r>
       <r>    -0.6193     0.0324     1.2006 </r>
       <r>    -0.5674     1.2364     1.2647 </r>
       <r>    -0.5155     0.0000     1.2647 </r>
       <r>    -0.4636     0.0000     1.2647 </r>
       <r>    -0.4117     0.0000     1.2647 </r>
       <r>    -0.3598     1.1404     1.3239 </r>
       <r>    -0.3079     1.2765     1.3902 </r>
       <r>    -0.2560     0.1209     1.3964 </r>
       <r>    -0.2042     0.0637     1.3997 </r>
       <r>    -0.1523     2.7912     1.5446 </r>
       <r>    -0.1004     0.0011     1.5446 </r>
       <r>    -0.0485     1.2678     1.6104 </r>
       <r>     0.0034     0.4208     1.6323 </r>
       <r>     0.0553     1.2709     1.6982 </r>
       <r>     0.1072     0.0001     1.6982 </r>
       <r>     0.1591     0.0004     1.6982 </r>
       <r>     0.2110     3.1421     1.8613 </r>
       <r>     0.2629     0.6641     1.8957 </r>
       <r>     0.3148     0.6713     1.9306 </r>
       <r>     0.3667     2.5008     2.0604 </r>
       <r>     0.4185     0.0011     2.0604 </r>
       <r>     0.4704     1.2677     2.1262 </r>
       <r>     0.5223     0.0000     2.1262 </r>
       <r>     0.5742     0.0658     2.1296 </r>
       <r>     0.6261     1.2031     2.1920 </r>
       <r>     0.6780     1.2038     2.2545 </r>
       <r>     0.7299     2.6802     2.3936 </r>
       <r>     0.7818     1.0635     2.4488 </r>
       <r>     0.8337     0.7625     2.4883 </r>
       <r>     0.8856     2.5006     2.6181 </r>
       <r>     0.9375     0.0370     2.6200 </r>
       <r>     0.9894     0.0000     2.6200 </r>
       <r>     1.0412     0.0000     2.6200 </r>
       <r>     1.0931     0.0000     2.6200 </r>
       <r>     1.1450     2.5071     2.7501 </r>
       <r>     1.1969     0.3478     2.7682 </r>
       <r>     1.2488     0.2515     2.7812 </r>
       <r>     1.3007     1.0174     2.8340 </r>
       <r>     1.3526     2.7334     2.9759 </r>
       <r>     1.4045     0.4387     2.9986 </r>
       <r>     1.4564     1.2665     3.0644 </r>
       <r>     1.5083     1.2708     3.1303 </r>
       <r>     1.5602     2.4399     3.2569 </r>
       <r>     1.6121     1.3670     3.3278 </r>
       <r>     1.6640     0.0000     3.3278 </r>
       <r>     1.7158     0.0014     3.3279 </r>
       <r>     1.7677     1.2674     3.3937 </r>
       <r>     1.8196     0.0000     3.3937 </r>
       <r>     1.8715     0.0424     3.3959 </r>
       <r>     1.9234     1.2268     3.4596 </r>
       <r>     1.9753     1.2684     3.5254 </r>
       <r>     2.0272     0.0001     3.5254 </r>
       <r>     2.0791     0.0000     3.5254 </r>
       <r>     2.1310     1.2678     3.5912 </r>
       <r>     2.1829     0.0011     3.5912 </r>
       <r>     2.2348     0.0000     3.5912 </r>
       <r>     2.2867     0.0000     3.5912 </r>
       <r>     2.3385     0.0000     3.5912 </r>
       <r>     2.3904     0.1220     3.5976 </r>
       <r>     2.4423     0.3009     3.6132 </r>
       <r>     2.4942     0.0000     3.6132 </r>
       <r>     2.5461     0.3601     3.6319 </r>
       <r>     2.5980     0.2743     3.6461 </r>
       <r>     2.6499     0.0000     3.6461 </r>
       <r>     2.7018     0.8279     3.6891 </r>
       <r>     2.7537     1.2880     3.7559 </r>
       <r>     2.8056     0.6568     3.7900 </r>
       <r>     2.8575     0.9283     3.8381 </r>
       <r>     2.9094     1.2685     3.9040 </r>
       <r>     2.9612     0.0001     3.9040 </r>
       <r>     3.0131     0.0000     3.9040 </r>
       <r>     3.0650     0.0000     3.9040 </r>
       <r>     3.1169     0.0000     3.9040 </r>
       <r>     3.1688     0.7231     3.9415 </r>
       <r>     3.2207     0.9687     3.9918 </r>
       <r>     3.2726     0.0000     3.9918 </r>
       <r>     3.3245     0.0000     3.9918 </r>
       <r>     3.3764     0.0000     3.9918 </r>
       <r>     3.4283     0.0000     3.9918 </r>
       <r>     3.4802     1.2343     4.0558 </r>
       <r>     3.5321     0.0345     4.0576 </r>
       <r>     3.5840     1.2520     4.1226 </r>
       <r>     3.6358     0.0386     4.1246 </r>
       <r>     3.6877     3.1504     4.2881 </r>
       <r>     3.7396     0.0000     4.2881 </r>
       <r>     3.7915     0.3143     4.3044 </r>
       <r>     3.8434     2.2235     4.4198 </r>
       <r>     3.8953     0.6318     4.4525 </r>
       <r>     3.9472     1.2578     4.5178 </r>
       <r>     3.9991     0.0137     4.5185 </r>
       <r>     4.0510     0.0000     4.5185 </r>
       <r>     4.1029     0.2135     4.5296 </r>
       <r>     4.1548     5.4906     4.8145 </r>
       <r>     4.2067     0.0981     4.8196 </r>
       <r>     4.2585     4.9829     5.0782 </r>
       <r>     4.3104     0.2085     5.0890 </r>
       <r>     4.3623     1.5780     5.1709 </r>
       <r>     4.4142     0.7501     5.2098 </r>
       <r>     4.4661     0.3875     5.2299 </r>
       <r>     4.5180     2.8906     5.3799 </r>
       <r>     4.5699     0.3869     5.4000 </r>
       <r>     4.6218     0.8830     5.4458 </r>
       <r>     4.6737     1.2680     5.5116 </r>
       <r>     4.7256     0.0009     5.5117 </r>
       <r>     4.7775     0.0000     5.5117 </r>
       <r>     4.8294     0.0000     5.5117 </r>
       <r>     4.8812     0.0000     5.5117 </r>
       <r>     4.9331     1.0554     5.5664 </r>
       <r>     4.9850     0.2156     5.5776 </r>
       <r>     5.0369     1.2668     5.6433 </r>
       <r>     5.0888     0.0000     5.6433 </r>
       <r>     5.1407     0.0000     5.6433 </r>
       <r>     5.1926     1.1953     5.7054 </r>
       <r>     5.2445     1.0508     5.7599 </r>
       <r>     5.2964     3.4479     5.9388 </r>
       <r>     5.3483     2.5308     6.0702 </r>
       <r>     5.4002     0.0255     6.0715 </r>
       <r>     5.4521     1.5933     6.1542 </r>
       <r>     5.5039     2.2105     6.2689 </r>
       <r>     5.5558     1.2664     6.3346 </r>
       <r>     5.6077     0.0025     6.3347 </r>
       <r>     5.6596     0.0000     6.3347 </r>
       <r>     5.7115     1.2671     6.4005 </r>
       <r>     5.7634     0.0018     6.4005 </r>
       <r>     5.8153     0.0000     6.4005 </r>
       <r>     5.8672     0.0000     6.4005 </r>
       <r>     5.9191     0.1569     6.4087 </r>
       <r>     5.9710     0.0017     6.4088 </r>
       <r>     6.0229     0.0000     6.4088 </r>
       <r>     6.0748     0.9780     6.4595 </r>
       <r>     6.1267     0.4088     6.4807 </r>
       <r>     6.1785     0.9396     6.5295 </r>
       <r>     6.2304     0.7770     6.5698 </r>
       <r>     6.2823     1.1262     6.6283 </r>
       <r>     6.3342     0.0000     6.6283 </r>
       <r>     6.3861     0.9080     6.6754 </r>
       <r>     6.4380     2.0526     6.7819 </r>
       <r>     6.4899     0.4319     6.8043 </r>
       <r>     6.5418     1.6192     6.8883 </r>
       <r>     6.5937     0.2752     6.9026 </r>
       <r>     6.6456     1.6703     6.9893 </r>
       <r>     6.6975     2.7707     7.1331 </r>
       <r>     6.7494     3.9996     7.3406 </r>
       <r>     6.8012     3.6103     7.5279 </r>
       <r>     6.8531     0.0320     7.5296 </r>
       <r>     6.9050     1.6589     7.6157 </r>
       <r>     6.9569     0.0042     7.6159 </r>
       <r>     7.0088     0.0000     7.6159 </r>
       <r>     7.0607     0.0394     7.6180 </r>
       <r>     7.1126     1.8333     7.7131 </r>
       <r>     7.1645     1.2617     7.7786 </r>
       <r>     7.2164     0.0378     7.7805 </r>
       <r>     7.2683     2.6140     7.9162 </r>
       <r>     7.3202     0.5582     7.9451 </r>
       <r>     7.3721     0.0000     7.9451 </r>
       <r>     7.4239     3.9979     8.1526 </r>
       <r>     7.4758     1.0775     8.2085 </r>
       <r>     7.5277     0.0000     8.2085 </r>
       <r>     7.5796     0.0000     8.2085 </r>
       <r>     7.6315     0.0000     8.2085 </r>
       <r>     7.6834     0.0000     8.2085 </r>
       <r>     7.7353     0.0000     8.2085 </r>
       <r>     7.7872     0.0000     8.2085 </r>
       <r>     7.8391     0.7562     8.2477 </r>
       <r>     7.8910     3.0504     8.4060 </r>
       <r>     7.9429     0.0000     8.4060 </r>
       <r>     7.9948     0.0110     8.4066 </r>
       <r>     8.0467     1.5645     8.4878 </r>
       <r>     8.0985     0.9757     8.5384 </r>
       <r>     8.1504     1.9703     8.6407 </r>
       <r>     8.2023     1.8758     8.7380 </r>
       <r>     8.2542     1.2405     8.8024 </r>
       <r>     8.3061     3.3600     8.9767 </r>
       <r>     8.3580     0.1577     8.9849 </r>
       <r>     8.4099     0.0001     8.9849 </r>
       <r>     8.4618     2.4522     9.1122 </r>
       <r>     8.5137     0.0854     9.1166 </r>
       <r>     8.5656     0.6069     9.1481 </r>
       <r>     8.6175     0.0275     9.1495 </r>
       <r>     8.6694     0.0000     9.1495 </r>
       <r>     8.7212     2.3098     9.2694 </r>
       <r>     8.7731     0.3597     9.2880 </r>
       <r>     8.8250     0.1856     9.2977 </r>
       <r>     8.8769     1.2685     9.3635 </r>
       <r>     8.9288     0.0003     9.3635 </r>
       <r>     8.9807     0.0000     9.3635 </r>
       <r>     9.0326     0.0000     9.3635 </r>
       <r>     9.0845     0.0000     9.3635 </r>
       <r>     9.1364     0.0000     9.3635 </r>
       <r>     9.1883     0.0000     9.3635 </r>
       <r>     9.2402     0.4052     9.3845 </r>
       <r>     9.2921     0.2292     9.3964 </r>
       <r>     9.3439     0.0000     9.3964 </r>
       <r>     9.3958     0.0000     9.3964 </r>
       <r>     9.4477     0.0000     9.3964 </r>
       <r>     9.4996     0.2331     9.4085 </r>
       <r>     9.5515     2.3506     9.5305 </r>
       <r>     9.6034     0.3157     9.5469 </r>
       <r>     9.6553     0.2727     9.5610 </r>
       <r>     9.7072     0.0000     9.5610 </r>
       <r>     9.7591     1.1039     9.6183 </r>
       <r>     9.8110     0.1650     9.6269 </r>
       <r>     9.8629     0.0000     9.6269 </r>
       <r>     9.9148     1.1958     9.6889 </r>
       <r>     9.9667     0.7071     9.7256 </r>
       <r>    10.0185     2.9553     9.8790 </r>
       <r>    10.0704     0.0058     9.8793 </r>
       <r>    10.1223     0.0000     9.8793 </r>
       <r>    10.1742     0.0000     9.8793 </r>
       <r>    10.2261     0.0000     9.8793 </r>
       <r>    10.2780     0.0001     9.8793 </r>
       <r>    10.3299     0.6343     9.9122 </r>
       <r>    10.3818     0.0001     9.9122 </r>
       <r>    10.4337     0.0000     9.9122 </r>
       <r>    10.4856     0.0001     9.9122 </r>
       <r>    10.5375     0.4228     9.9342 </r>
       <r>    10.5894     0.0000     9.9342 </r>
       <r>    10.6412     0.0000     9.9342 </r>
       <r>    10.6931     0.0000     9.9342 </r>
       <r>    10.7450     0.0000     9.9342 </r>
       <r>    10.7969     0.0000     9.9342 </r>
       <r>    10.8488     0.0000     9.9342 </r>
       <r>    10.9007     0.0000     9.9342 </r>
       <r>    10.9526     0.0048     9.9344 </r>
       <r>    11.0045     1.2640    10.0000 </r>
       <r>    11.0564     0.0000    10.0000 </r>
       <r>    11.1083     0.0000    10.0000 </r>
       <r>    11.1602     0.0000    10.0000 </r>
       <r>    11.2121     0.0000    10.0000 </r>
       <r>    11.2639     0.0000    10.0000 </r>
       <r>    11.3158     0.0000    10.0000 </r>
       <r>    11.3677     0.0000    10.0000 </r>
       <r>    11.4196     0.0000    10.0000 </r>
       <r>    11.4715     0.0000    10.0000 </r>
       <r>    11.5234     0.0000    10.0000 </r>
       <r>    11.5753     0.0000    10.0000 </r>
       <r>    11.6272     0.0000    10.0000 </r>
       <r>    11.6791     0.0000    10.0000 </r>
      </set>
     </set>
    </array>
   </total>
   <partial>
    <array>
     <dimension dim="1">gridpoints</dimension>
     <dimension dim="2">spin</dimension>
     <dimension dim="3">ion</dimension>
     <field>energy</field>
     <field>  s  </field>
     <field>  p  </field>
     <field>  d  </field>
     <set>
      <set comment="ion 1">
       <set comment="spin 1">
        <r>    -3.8885     0.0000     0.0000     0.0000 </r>
        <r>    -3.8366     0.0000     0.0000     0.0000 </r>
        <r>    -3.7847     0.0000     0.0000     0.0000 </r>
        <r>    -3.7328     0.0000     0.0000     0.0000 </r>
        <r>    -3.6809     0.0000     0.0000     0.0000 </r>
        <r>    -3.6290     0.0000     0.0000     0.0000 </r>
        <r>    -3.5771     0.0000     0.0000     0.0000 </r>
        <r>    -3.5252     0.0000     0.0000     0.0000 </r>
        <r>    -3.4733     0.0000     0.0000     0.0000 </r>
        <r>    -3.4215     0.0000     0.0000     0.0000 </r>
        <r>    -3.3696     0.0000     0.0000     0.0000 </r>
        <r>    -3.3177     0.0000     0.0000     0.0000 </r>
        <r>    -3.2658     0.0000     0.0000     0.0000 </r>
        <r>    -3.2139     0.0000     0.0000     0.0000 </r>
        <r>    -3.1620     0.0052     0.0000     0.0000 </r>
        <r>    -3.1101     0.0000     0.0000     0.0000 </r>
        <r>    -3.0582     0.0234     0.0007     0.0000 </r>
        <r>    -3.0063     0.0072     0.0002     0.0000 </r>
        <r>    -2.9544     0.0069     0.0004     0.0000 </r>
        <r>    -2.9025     0.0529     0.0031     0.0000 </r>
        <r>    -2.8506     0.0000     0.0000     0.0000 </r>
        <r>    -2.7988     0.0388     0.0035     0.0000 </r>
        <r>    -2.7469     0.0000     0.0000     0.0000 </r>
        <r>    -2.6950     0.0279     0.0034     0.0000 </r>
        <r>    -2.6431     0.0006     0.0001     0.0000 </r>
        <r>    -2.5912     0.0639     0.0100     0.0000 </r>
        <r>    -2.5393     0.0470     0.0074     0.0000 </r>
        <r>    -2.4874     0.0050     0.0010     0.0000 </r>
        <r>    -2.4355     0.1032     0.0199     0.0000 </r>
        <r>    -2.3836     0.0000     0.0000     0.0000 </r>
        <r>    -2.3317     0.0000     0.0000     0.0000 </r>
        <r>    -2.2798     0.0000     0.0000     0.0000 </r>
        <r>    -2.2279     0.0498     0.0136     0.0000 </r>
        <r>    -2.1760     0.0014     0.0004     0.0000 </r>
        <r>    -2.1242     0.0515     0.0161     0.0000 </r>
        <r>    -2.0723     0.0733     0.0226     0.0000 </r>
        <r>    -2.0204     0.0002     0.0001     0.0000 </r>
        <r>    -1.9685     0.0975     0.0336     0.0000 </r>
        <r>    -1.9166     0.0000     0.0000     0.0000 </r>
        <r>    -1.8647     0.0944     0.0371     0.0000 </r>
        <r>    -1.8128     0.0003     0.0001     0.0000 </r>
        <r>    -1.7609     0.0284     0.0128     0.0000 </r>
        <r>    -1.7090     0.0020     0.0009     0.0000 </r>
        <r>    -1.6571     0.0362     0.0184     0.0000 </r>
        <r>    -1.6052     0.0522     0.0264     0.0000 </r>
        <r>    -1.5533     0.0022     0.0012     0.0000 </r>
        <r>    -1.5015     0.1695     0.0947     0.0000 </r>
        <r>    -1.4496     0.0000     0.0000     0.0000 </r>
        <r>    -1.3977     0.0000     0.0000     0.0000 </r>
        <r>    -1.3458     0.0000     0.0000     0.0000 </r>
        <r>    -1.2939     0.0001     0.0000     0.0000 </r>
        <r>    -1.2420     0.0209     0.0127     0.0000 </r>
        <r>    -1.1901     0.0193     0.0143     0.0000 </r>
        <r>    -1.1382     0.1389     0.0981     0.0000 </r>
        <r>    -1.0863     0.0219     0.0190     0.0000 </r>
        <r>    -1.0344     0.0908     0.0705     0.0000 </r>
        <r>    -0.9825     0.0019     0.0016     0.0000 </r>
        <r>    -0.9306     0.0700     0.0651     0.0000 </r>
        <r>    -0.8788     0.0000     0.0000     0.0000 </r>
        <r>    -0.8269     0.0611     0.0589     0.0000 </r>
        <r>    -0.7750     0.0088     0.0085     0.0000 </r>
        <r>    -0.7231     0.0260     0.0270     0.0000 </r>
        <r>    -0.6712     0.1089     0.1134     0.0000 </r>
        <r>    -0.6193     0.0016     0.0019     0.0000 </r>
        <r>    -0.5674     0.0626     0.0718     0.0000 </r>
        <r>    -0.5155     0.0000     0.0000     0.0000 </r>
        <r>    -0.4636     0.0000     0.0000     0.0000 </r>
        <r>    -0.4117     0.0000     0.0000     0.0000 </r>
        <r>    -0.3598     0.0536     0.0714     0.0000 </r>
        <r>    -0.3079     0.0521     0.0893     0.0000 </r>
        <r>    -0.2560     0.0049     0.0086     0.0000 </r>
        <r>    -0.2042     0.0025     0.0046     0.0000 </r>
        <r>    -0.1523     0.1126     0.1970     0.0000 </r>
        <r>    -0.1004     0.0001     0.0001     0.0000 </r>
        <r>    -0.0485     0.0604     0.0793     0.0000 </r>
        <r>     0.0034     0.0174     0.0290     0.0000 </r>
        <r>     0.0553     0.0571     0.0836     0.0000 </r>
        <r>     0.1072     0.0000     0.0000     0.0000 </r>
        <r>     0.1591     0.0000     0.0000     0.0000 </r>
        <r>     0.2110     0.1123     0.2386     0.0000 </r>
        <r>     0.2629     0.0248     0.0496     0.0000 </r>
        <r>     0.3148     0.0125     0.0646     0.0000 </r>
        <r>     0.3667     0.0890     0.1916     0.0000 </r>
        <r>     0.4185     0.0000     0.0001     0.0000 </r>
        <r>     0.4704     0.0218     0.1238     0.0000 </r>
        <r>     0.5223     0.0000     0.0000     0.0000 </r>
        <r>     0.5742     0.0011     0.0064     0.0000 </r>
        <r>     0.6261     0.0207     0.1178     0.0000 </r>
        <r>     0.6780     0.0357     0.1004     0.0000 </r>
        <r>     0.7299     0.0359     0.2742     0.0000 </r>
        <r>     0.7818     0.0231     0.0982     0.0000 </r>
        <r>     0.8337     0.0212     0.0647     0.0000 </r>
        <r>     0.8856     0.0209     0.2696     0.0000 </r>
        <r>     0.9375     0.0000     0.0043     0.0000 </r>
        <r>     0.9894     0.0000     0.0000     0.0000 </r>
        <r>     1.0412     0.0000     0.0000     0.0000 </r>
        <r>     1.0931     0.0000     0.0000     0.0000 </r>
        <r>     1.1450     0.0393     0.2492     0.0000 </r>
        <r>     1.1969     0.0116     0.0282     0.0000 </r>
        <r>     1.2488     0.0078     0.0211     0.0000 </r>
        <r>     1.3007     0.0315     0.0851     0.0000 </r>
        <r>     1.3526     0.0235     0.2958     0.0000 </r>
        <r>     1.4045     0.0119     0.0386     0.0000 </r>
        <r>     1.4564     0.0210     0.1264     0.0000 </r>
        <r>     1.5083     0.0000     0.1501     0.0000 </r>
        <r>     1.5602     0.0366     0.2453     0.0000 </r>
        <r>     1.6121     0.0215     0.1377     0.0000 </r>
        <r>     1.6640     0.0000     0.0000     0.0000 </r>
        <r>     1.7158     0.0000     0.0002     0.0000 </r>
        <r>     1.7677     0.0139     0.1324     0.0000 </r>
        <r>     1.8196     0.0000     0.0000     0.0000 </r>
        <r>     1.8715     0.0005     0.0045     0.0000 </r>
        <r>     1.9234     0.0138     0.1295     0.0000 </r>
        <r>     1.9753     0.0000     0.1494     0.0000 </r>
        <r>     2.0272     0.0000     0.0000     0.0000 </r>
        <r>     2.0791     0.0000     0.0000     0.0000 </r>
        <r>     2.1310     0.0000     0.1479     0.0000 </r>
        <r>     2.1829     0.0000     0.0001     0.0000 </r>
        <r>     2.2348     0.0000     0.0000     0.0000 </r>
        <r>     2.2867     0.0000     0.0000     0.0000 </r>
        <r>     2.3385     0.0000     0.0000     0.0000 </r>
        <r>     2.3904     0.0010     0.0131     0.0000 </r>
        <r>     2.4423     0.0025     0.0322     0.0000 </r>
        <r>     2.4942     0.0000     0.0000     0.0000 </r>
        <r>     2.5461     0.0000     0.0434     0.0000 </r>
        <r>     2.5980     0.0000     0.0331     0.0000 </r>
        <r>     2.6499     0.0000     0.0000     0.0000 </r>
        <r>     2.7018     0.0000     0.0998     0.0000 </r>
        <r>     2.7537     0.0000     0.1526     0.0000 </r>
        <r>     2.8056     0.0111     0.0684     0.0000 </r>
        <r>     2.8575     0.0132     0.0992     0.0000 </r>
        <r>     2.9094     0.0141     0.1395     0.0000 </r>
        <r>     2.9612     0.0000     0.0000     0.0000 </r>
        <r>     3.0131     0.0000     0.0000     0.0000 </r>
        <r>     3.0650     0.0000     0.0000     0.0000 </r>
        <r>     3.1169     0.0000     0.0000     0.0000 </r>
        <r>     3.1688     0.0000     0.0871     0.0000 </r>
        <r>     3.2207     0.0000     0.1131     0.0000 </r>
        <r>     3.2726     0.0000     0.0000     0.0000 </r>
        <r>     3.3245     0.0000     0.0000     0.0000 </r>
        <r>     3.3764     0.0000     0.0000     0.0000 </r>
        <r>     3.4283     0.0000     0.0000     0.0000 </r>
        <r>     3.4802     0.0258     0.1185     0.0000 </r>
        <r>     3.5321     0.0007     0.0033     0.0000 </r>
        <r>     3.5840     0.0252     0.1187     0.0000 </r>
        <r>     3.6358     0.0024     0.0020     0.0000 </r>
        <r>     3.6877     0.2616     0.0882     0.0000 </r>
        <r>     3.7396     0.0000     0.0000     0.0000 </r>
        <r>     3.7915     0.0063     0.0304     0.0000 </r>
        <r>     3.8434     0.0750     0.1842     0.0000 </r>
        <r>     3.8953     0.0519     0.0211     0.0000 </r>
        <r>     3.9472     0.0002     0.1513     0.0000 </r>
        <r>     3.9991     0.0000     0.0016     0.0000 </r>
        <r>     4.0510     0.0000     0.0000     0.0000 </r>
        <r>     4.1029     0.0160     0.0086     0.0000 </r>
        <r>     4.1548     0.2404     0.4029     0.0000 </r>
        <r>     4.2067     0.0056     0.0057     0.0000 </r>
        <r>     4.2585     0.3255     0.2499     0.0000 </r>
        <r>     4.3104     0.0000     0.0276     0.0000 </r>
        <r>     4.3623     0.0202     0.1697     0.0000 </r>
        <r>     4.4142     0.0326     0.0613     0.0000 </r>
        <r>     4.4661     0.0001     0.0513     0.0000 </r>
        <r>     4.5180     0.0654     0.2946     0.0000 </r>
        <r>     4.5699     0.0034     0.0440     0.0000 </r>
        <r>     4.6218     0.0017     0.1061     0.0000 </r>
        <r>     4.6737     0.0621     0.0958     0.0000 </r>
        <r>     4.7256     0.0000     0.0001     0.0000 </r>
        <r>     4.7775     0.0000     0.0000     0.0000 </r>
        <r>     4.8294     0.0000     0.0000     0.0000 </r>
        <r>     4.8812     0.0000     0.0000     0.0000 </r>
        <r>     4.9331     0.0000     0.1402     0.0000 </r>
        <r>     4.9850     0.0000     0.0286     0.0000 </r>
        <r>     5.0369     0.0000     0.1534     0.0000 </r>
        <r>     5.0888     0.0000     0.0000     0.0000 </r>
        <r>     5.1407     0.0000     0.0000     0.0000 </r>
        <r>     5.1926     0.0000     0.1410     0.0000 </r>
        <r>     5.2445     0.0335     0.1101     0.0000 </r>
        <r>     5.2964     0.1993     0.2135     0.0000 </r>
        <r>     5.3483     0.0641     0.2375     0.0000 </r>
        <r>     5.4002     0.0006     0.0025     0.0000 </r>
        <r>     5.4521     0.0305     0.1919     0.0000 </r>
        <r>     5.5039     0.0588     0.2169     0.0000 </r>
        <r>     5.5558     0.0568     0.1033     0.0000 </r>
        <r>     5.6077     0.0001     0.0002     0.0000 </r>
        <r>     5.6596     0.0000     0.0000     0.0000 </r>
        <r>     5.7115     0.0000     0.1695     0.0000 </r>
        <r>     5.7634     0.0000     0.0002     0.0000 </r>
        <r>     5.8153     0.0000     0.0000     0.0000 </r>
        <r>     5.8672     0.0000     0.0000     0.0000 </r>
        <r>     5.9191     0.0000     0.0293     0.0000 </r>
        <r>     5.9710     0.0000     0.0003     0.0000 </r>
        <r>     6.0229     0.0000     0.0000     0.0000 </r>
        <r>     6.0748     0.0118     0.1684     0.0000 </r>
        <r>     6.1267     0.0082     0.0536     0.0000 </r>
        <r>     6.1785     0.0159     0.1198     0.0000 </r>
        <r>     6.2304     0.0054     0.1304     0.0000 </r>
        <r>     6.2823     0.0424     0.0942     0.0000 </r>
        <r>     6.3342     0.0000     0.0000     0.0000 </r>
        <r>     6.3861     0.0003     0.1118     0.0000 </r>
        <r>     6.4380     0.1017     0.2375     0.0000 </r>
        <r>     6.4899     0.0584     0.0024     0.0000 </r>
        <r>     6.5418     0.0952     0.1522     0.0000 </r>
        <r>     6.5937     0.0263     0.0097     0.0000 </r>
        <r>     6.6456     0.0850     0.1779     0.0000 </r>
        <r>     6.6975     0.0755     0.3620     0.0000 </r>
        <r>     6.7494     0.1990     0.3503     0.0000 </r>
        <r>     6.8012     0.0968     0.3794     0.0000 </r>
        <r>     6.8531     0.0001     0.0038     0.0000 </r>
        <r>     6.9050     0.1540     0.0873     0.0000 </r>
        <r>     6.9569     0.0005     0.0001     0.0000 </r>
        <r>     7.0088     0.0000     0.0000     0.0000 </r>
        <r>     7.0607     0.0018     0.0053     0.0000 </r>
        <r>     7.1126     0.0559     0.2786     0.0000 </r>
        <r>     7.1645     0.0211     0.1663     0.0000 </r>
        <r>     7.2164     0.0006     0.0049     0.0000 </r>
        <r>     7.2683     0.1138     0.3519     0.0000 </r>
        <r>     7.3202     0.0308     0.0670     0.0000 </r>
        <r>     7.3721     0.0000     0.0000     0.0000 </r>
        <r>     7.4239     0.2759     0.3864     0.0000 </r>
        <r>     7.4758     0.1010     0.0602     0.0000 </r>
        <r>     7.5277     0.0000     0.0000     0.0000 </r>
        <r>     7.5796     0.0000     0.0000     0.0000 </r>
        <r>     7.6315     0.0000     0.0000     0.0000 </r>
        <r>     7.6834     0.0000     0.0000     0.0000 </r>
        <r>     7.7353     0.0000     0.0000     0.0000 </r>
        <r>     7.7872     0.0000     0.0000     0.0000 </r>
        <r>     7.8391     0.0029     0.1400     0.0000 </r>
        <r>     7.8910     0.1215     0.3792     0.0000 </r>
        <r>     7.9429     0.0000     0.0000     0.0000 </r>
        <r>     7.9948     0.0005     0.0015     0.0000 </r>
        <r>     8.0467     0.0586     0.2105     0.0000 </r>
        <r>     8.0985     0.0000     0.1253     0.0000 </r>
        <r>     8.1504     0.0363     0.2617     0.0000 </r>
        <r>     8.2023     0.0993     0.2320     0.0000 </r>
        <r>     8.2542     0.0454     0.1283     0.0000 </r>
        <r>     8.3061     0.0675     0.4009     0.0000 </r>
        <r>     8.3580     0.0000     0.0069     0.0000 </r>
        <r>     8.4099     0.0000     0.0000     0.0000 </r>
        <r>     8.4618     0.0210     0.4082     0.0000 </r>
        <r>     8.5137     0.0015     0.0117     0.0000 </r>
        <r>     8.5656     0.0000     0.1213     0.0000 </r>
        <r>     8.6175     0.0000     0.0055     0.0000 </r>
        <r>     8.6694     0.0000     0.0000     0.0000 </r>
        <r>     8.7212     0.1061     0.3123     0.0000 </r>
        <r>     8.7731     0.0105     0.0308     0.0000 </r>
        <r>     8.8250     0.0000     0.0000     0.0000 </r>
        <r>     8.8769     0.0000     0.2545     0.0000 </r>
        <r>     8.9288     0.0000     0.0001     0.0000 </r>
        <r>     8.9807     0.0000     0.0000     0.0000 </r>
        <r>     9.0326     0.0000     0.0000     0.0000 </r>
        <r>     9.0845     0.0000     0.0000     0.0000 </r>
        <r>     9.1364     0.0000     0.0000     0.0000 </r>
        <r>     9.1883     0.0000     0.0000     0.0000 </r>
        <r>     9.2402     0.0035     0.0104     0.0000 </r>
        <r>     9.2921     0.0020     0.0059     0.0000 </r>
        <r>     9.3439     0.0000     0.0000     0.0000 </r>
        <r>     9.3958     0.0000     0.0000     0.0000 </r>
        <r>     9.4477     0.0000     0.0000     0.0000 </r>
        <r>     9.4996     0.0063     0.0389     0.0000 </r>
        <r>     9.5515     0.0368     0.4297     0.0000 </r>
        <r>     9.6034     0.0000     0.0089     0.0000 </r>
        <r>     9.6553     0.0000     0.0549     0.0000 </r>
        <r>     9.7072     0.0000     0.0000     0.0000 </r>
        <r>     9.7591     0.0000     0.1676     0.0000 </r>
        <r>     9.8110     0.0000     0.0251     0.0000 </r>
        <r>     9.8629     0.0000     0.0000     0.0000 </r>
        <r>     9.9148     0.0171     0.0306     0.0000 </r>
        <r>     9.9667     0.0203     0.0830     0.0000 </r>
        <r>    10.0185     0.0505     0.4181     0.0000 </r>
        <r>    10.0704     0.0001     0.0009     0.0000 </r>
        <r>    10.1223     0.0000     0.0000     0.0000 </r>
        <r>    10.1742     0.0000     0.0000     0.0000 </r>
        <r>    10.2261     0.0000     0.0000     0.0000 </r>
        <r>    10.2780     0.0000     0.0000     0.0000 </r>
        <r>    10.3299     0.0000     0.1548     0.0000 </r>
        <r>    10.3818     0.0000     0.0000     0.0000 </r>
        <r>    10.4337     0.0000     0.0000     0.0000 </r>
        <r>    10.4856     0.0000     0.0000     0.0000 </r>
        <r>    10.5375     0.0000     0.0229     0.0000 </r>
        <r>    10.5894     0.0000     0.0000     0.0000 </r>
        <r>    10.6412     0.0000     0.0000     0.0000 </r>
        <r>    10.6931     0.0000     0.0000     0.0000 </r>
        <r>    10.7450     0.0000     0.0000     0.0000 </r>
        <r>    10.7969     0.0000     0.0000     0.0000 </r>
        <r>    10.8488     0.0000     0.0000     0.0000 </r>
        <r>    10.9007     0.0000     0.0000     0.0000 </r>
        <r>    10.9526     0.0000     0.0003     0.0000 </r>
        <r>    11.0045     0.0000     0.0691     0.0000 </r>
        <r>    11.0564     0.0000     0.0000     0.0000 </r>
        <r>    11.1083     0.0000     0.0000     0.0000 </r>
        <r>    11.1602     0.0000     0.0000     0.0000 </r>
        <r>    11.2121     0.0000     0.0000     0.0000 </r>
        <r>    11.2639     0.0000     0.0000     0.0000 </r>
        <r>    11.3158     0.0000     0.0000     0.0000 </r>
        <r>    11.3677     0.0000     0.0000     0.0000 </r>
        <r>    11.4196     0.0000     0.0000     0.0000 </r>
        <r>    11.4715     0.0000     0.0000     0.0000 </r>
        <r>    11.5234     0.0000     0.0000     0.0000 </r>
        <r>    11.5753     0.0000     0.0000     0.0000 </r>
        <r>    11.6272     0.0000     0.0000     0.0000 </r>
        <r>    11.6791     0.0000     0.0000     0.0000 </r>
       </set>
      </set>
      <set comment="ion 2">
       <set comment="spin 1">
        <r>    -3.8885     0.0000     0.0000     0.0000 </r>
        <r>    -3.8366     0.0000     0.0000     0.0000 </r>
        <r>    -3.7847     0.0000     0.0000     0.0000 </r>
        <r>    -3.7328     0.0000     0.0000     0.0000 </r>
        <r>    -3.6809     0.0000     0.0000     0.0000 </r>
        <r>    -3.6290     0.0000     0.0000     0.0000 </r>
        <r>    -3.5771     0.0000     0.0000     0.0000 </r>
        <r>    -3.5252     0.0000     0.0000     0.0000 </r>
        <r>    -3.4733     0.0000     0.0000     0.0000 </r>
        <r>    -3.4215     0.0000     0.0000     0.0000 </r>
        <r>    -3.3696     0.0000     0.0000     0.0000 </r>
        <r>    -3.3177     0.0000     0.0000     0.0000 </r>
        <r>    -3.2658     0.0000     0.0000     0.0000 </r>
        <r>    -3.2139     0.0000     0.0000     0.0000 </r>
        <r>    -3.1620     0.0052     0.0000     0.0000 </r>
        <r>    -3.1101     0.0000     0.0000     0.0000 </r>
        <r>    -3.0582     0.0234     0.0007     0.0000 </r>
        <r>    -3.0063     0.0072     0.0002     0.0000 </r>
        <r>    -2.9544     0.0069     0.0004     0.0000 </r>
        <r>    -2.9025     0.0529     0.0031     0.0000 </r>
        <r>    -2.8506     0.0000     0.0000     0.0000 </r>
        <r>    -2.7988     0.0388     0.0035     0.0000 </r>
        <r>    -2.7469     0.0000     0.0000     0.0000 </r>
        <r>    -2.6950     0.0279     0.0034     0.0000 </r>
        <r>    -2.6431     0.0006     0.0001     0.0000 </r>
        <r>    -2.5912     0.0639     0.0100     0.0000 </r>
        <r>    -2.5393     0.0470     0.0074     0.0000 </r>
        <r>    -2.4874     0.0050     0.0010     0.0000 </r>
        <r>    -2.4355     0.1032     0.0199     0.0000 </r>
        <r>    -2.3836     0.0000     0.0000     0.0000 </r>
        <r>    -2.3317     0.0000     0.0000     0.0000 </r>
        <r>    -2.2798     0.0000     0.0000     0.0000 </r>
        <r>    -2.2279     0.0498     0.0136     0.0000 </r>
        <r>    -2.1760     0.0014     0.0004     0.0000 </r>
        <r>    -2.1242     0.0515     0.0161     0.0000 </r>
        <r>    -2.0723     0.0733     0.0226     0.0000 </r>
        <r>    -2.0204     0.0002     0.0001     0.0000 </r>
        <r>    -1.9685     0.0975     0.0336     0.0000 </r>
        <r>    -1.9166     0.0000     0.0000     0.0000 </r>
        <r>    -1.8647     0.0944     0.0371     0.0000 </r>
        <r>    -1.8128     0.0003     0.0001     0.0000 </r>
        <r>    -1.7609     0.0284     0.0128     0.0000 </r>
        <r>    -1.7090     0.0020     0.0009     0.0000 </r>
        <r>    -1.6571     0.0362     0.0184     0.0000 </r>
        <r>    -1.6052     0.0522     0.0264     0.0000 </r>
        <r>    -1.5533     0.0022     0.0012     0.0000 </r>
        <r>    -1.5015     0.1695     0.0947     0.0000 </r>
        <r>    -1.4496     0.0000     0.0000     0.0000 </r>
        <r>    -1.3977     0.0000     0.0000     0.0000 </r>
        <r>    -1.3458     0.0000     0.0000     0.0000 </r>
        <r>    -1.2939     0.0001     0.0000     0.0000 </r>
        <r>    -1.2420     0.0209     0.0127     0.0000 </r>
        <r>    -1.1901     0.0193     0.0143     0.0000 </r>
        <r>    -1.1382     0.1389     0.0981     0.0000 </r>
        <r>    -1.0863     0.0219     0.0190     0.0000 </r>
        <r>    -1.0344     0.0908     0.0705     0.0000 </r>
        <r>    -0.9825     0.0019     0.0016     0.0000 </r>
        <r>    -0.9306     0.0700     0.0651     0.0000 </r>
        <r>    -0.8788     0.0000     0.0000     0.0000 </r>
        <r>    -0.8269     0.0611     0.0589     0.0000 </r>
        <r>    -0.7750     0.0088     0.0085     0.0000 </r>
        <r>    -0.7231     0.0260     0.0270     0.0000 </r>
        <r>    -0.6712     0.1089     0.1134     0.0000 </r>
        <r>    -0.6193     0.0016     0.0019     0.0000 </r>
        <r>    -0.5674     0.0626     0.0718     0.0000 </r>
        <r>    -0.5155     0.0000     0.0000     0.0000 </r>
        <r>    -0.4636     0.0000     0.0000     0.0000 </r>
        <r>    -0.4117     0.0000     0.0000     0.0000 </r>
        <r>    -0.3598     0.0536     0.0714     0.0000 </r>
        <r>    -0.3079     0.0521     0.0893     0.0000 </r>
        <r>    -0.2560     0.0049     0.0086     0.0000 </r>
        <r>    -0.2042     0.0025     0.0046     0.0000 </r>
        <r>    -0.1523     0.1126     0.1970     0.0000 </r>
        <r>    -0.1004     0.0001     0.0001     0.0000 </r>
        <r>    -0.0485     0.0604     0.0793     0.0000 </r>
        <r>     0.0034     0.0174     0.0290     0.0000 </r>
        <r>     0.0553     0.0571     0.0836     0.0000 </r>
        <r>     0.1072     0.0000     0.0000     0.0000 </r>
        <r>     0.1591     0.0000     0.0000     0.0000 </r>
        <r>     0.2110     0.1123     0.2386     0.0000 </r>
        <r>     0.2629     0.0248     0.0496     0.0000 </r>
        <r>     0.3148     0.0125     0.0646     0.0000 </r>
        <r>     0.3667     0.0890     0.1916     0.0000 </r>
        <r>     0.4185     0.0000     0.0001     0.0000 </r>
        <r>     0.4704     0.0218     0.1238     0.0000 </r>
        <r>     0.5223     0.0000     0.0000     0.0000 </r>
        <r>     0.5742     0.0011     0.0064     0.0000 </r>
        <r>     0.6261     0.0207     0.1178     0.0000 </r>
        <r>     0.6780     0.0357     0.1004     0.0000 </r>
        <r>     0.7299     0.0359     0.2742     0.0000 </r>
        <r>     0.7818     0.0231     0.0982     0.0000 </r>
        <r>     0.8337     0.0212     0.0647     0.0000 </r>
        <r>     0.8856     0.0209     0.2696     0.0000 </r>
        <r>     0.9375     0.0000     0.0043     0.0000 </r>
        <r>     0.9894     0.0000     0.0000     0.0000 </r>
        <r>     1.0412     0.0000     0.0000     0.0000 </r>
        <r>     1.0931     0.0000     0.0000     0.0000 </r>
        <r>     1.1450     0.0393     0.2492     0.0000 </r>
        <r>     1.1969     0.0116     0.0282     0.0000 </r>
        <r>     1.2488     0.0078     0.0211     0.0000 </r>
        <r>     1.3007     0.0315     0.0851     0.0000 </r>
        <r>     1.3526     0.0235     0.2958     0.0000 </r>
        <r>     1.4045     0.0119     0.0386     0.0000 </r>
        <r>     1.4564     0.0210     0.1264     0.0000 </r>
        <r>     1.5083     0.0000     0.1501     0.0000 </r>
        <r>     1.5602     0.0366     0.2453     0.0000 </r>
        <r>     1.6121     0.0215     0.1377     0.0000 </r>
        <r>     1.6640     0.0000     0.0000     0.0000 </r>
        <r>     1.7158     0.0000     0.0002     0.0000 </r>
        <r>     1.7677     0.0139     0.1324     0.0000 </r>
        <r>     1.8196     0.0000     0.0000     0.0000 </r>
        <r>     1.8715     0.0005     0.0045     0.0000 </r>
        <r>     1.9234     0.0138     0.1295     0.0000 </r>
        <r>     1.9753     0.0000     0.1494     0.0000 </r>
        <r>     2.0272     0.0000     0.0000     0.0000 </r>
        <r>     2.0791     0.0000     0.0000     0.0000 </r>
        <r>     2.1310     0.0000     0.1479     0.0000 </r>
        <r>     2.1829     0.0000     0.0001     0.0000 </r>
        <r>     2.2348     0.0000     0.0000     0.0000 </r>
        <r>     2.2867     0.0000     0.0000     0.0000 </r>
        <r>     2.3385     0.0000     0.0000     0.0000 </r>
        <r>     2.3904     0.0010     0.0131     0.0000 </r>
        <r>     2.4423     0.0025     0.0322     0.0000 </r>
        <r>     2.4942     0.0000     0.0000     0.0000 </r>
        <r>     2.5461     0.0000     0.0434     0.0000 </r>
        <r>     2.5980     0.0000     0.0331     0.0000 </r>
        <r>     2.6499     0.0000     0.0000     0.0000 </r>
        <r>     2.7018     0.0000     0.0998     0.0000 </r>
        <r>     2.7537     0.0000     0.1526     0.0000 </r>
        <r>     2.8056     0.0111     0.0684     0.0000 </r>
        <r>     2.8575     0.0132     0.0992     0.0000 </r>
        <r>     2.9094     0.0141     0.1395     0.0000 </r>
        <r>     2.9612     0.0000     0.0000     0.0000 </r>
        <r>     3.0131     0.0000     0.0000     0.0000 </r>
        <r>     3.0650     0.0000     0.0000     0.0000 </r>
        <r>     3.1169     0.0000     0.0000     0.0000 </r>
        <r>     3.1688     0.0000     0.0871     0.0000 </r>
        <r>     3.2207     0.0000     0.1131     0.0000 </r>
        <r>     3.2726     0.0000     0.0000     0.0000 </r>
        <r>     3.3245     0.0000     0.0000     0.0000 </r>
        <r>     3.3764     0.0000     0.0000     0.0000 </r>
        <r>     3.4283     0.0000     0.0000     0.0000 </r>
        <r>     3.4802     0.0258     0.1185     0.0000 </r>
        <r>     3.5321     0.0007     0.0033     0.0000 </r>
        <r>     3.5840     0.0252     0.1187     0.0000 </r>
        <r>     3.6358     0.0024     0.0020     0.0000 </r>
        <r>     3.6877     0.2616     0.0882     0.0000 </r>
        <r>     3.7396     0.0000     0.0000     0.0000 </r>
        <r>     3.7915     0.0063     0.0304     0.0000 </r>
        <r>     3.8434     0.0750     0.1842     0.0000 </r>
        <r>     3.8953     0.0519     0.0211     0.0000 </r>
        <r>     3.9472     0.0002     0.1513     0.0000 </r>
        <r>     3.9991     0.0000     0.0016     0.0000 </r>
        <r>     4.0510     0.0000     0.0000     0.0000 </r>
        <r>     4.1029     0.0160     0.0086     0.0000 </r>
        <r>     4.1548     0.2404     0.4029     0.0000 </r>
        <r>     4.2067     0.0056     0.0057     0.0000 </r>
        <r>     4.2585     0.3255     0.2499     0.0000 </r>
        <r>     4.3104     0.0000     0.0276     0.0000 </r>
        <r>     4.3623     0.0202     0.1697     0.0000 </r>
        <r>     4.4142     0.0326     0.0613     0.0000 </r>
        <r>     4.4661     0.0001     0.0513     0.0000 </r>
        <r>     4.5180     0.0654     0.2946     0.0000 </r>
        <r>     4.5699     0.0034     0.0440     0.0000 </r>
        <r>     4.6218     0.0017     0.1061     0.0000 </r>
        <r>     4.6737     0.0621     0.0958     0.0000 </r>
        <r>     4.7256     0.0000     0.0001     0.0000 </r>
        <r>     4.7775     0.0000     0.0000     0.0000 </r>
        <r>     4.8294     0.0000     0.0000     0.0000 </r>
        <r>     4.8812     0.0000     0.0000     0.0000 </r>
        <r>     4.9331     0.0000     0.1402     0.0000 </r>
        <r>     4.9850     0.0000     0.0286     0.0000 </r>
        <r>     5.0369     0.0000     0.1534     0.0000 </r>
        <r>     5.0888     0.0000     0.0000     0.0000 </r>
        <r>     5.1407     0.0000     0.0000     0.0000 </r>
        <r>     5.1926     0.0000     0.1410     0.0000 </r>
        <r>     5.2445     0.0335     0.1101     0.0000 </r>
        <r>     5.2964     0.1993     0.2135     0.0000 </r>
        <r>     5.3483     0.0641     0.2375     0.0000 </r>
        <r>     5.4002     0.0006     0.0025     0.0000 </r>
        <r>     5.4521     0.0305     0.1919     0.0000 </r>
        <r>     5.5039     0.0588     0.2169     0.0000 </r>
        <r>     5.5558     0.0568     0.1033     0.0000 </r>
        <r>     5.6077     0.0001     0.0002     0.0000 </r>
        <r>     5.6596     0.0000     0.0000     0.0000 </r>
        <r>     5.7115     0.0000     0.1695     0.0000 </r>
        <r>     5.7634     0.0000     0.0002     0.0000 </r>
        <r>     5.8153     0.0000     0.0000     0.0000 </r>
        <r>     5.8672     0.0000     0.0000     0.0000 </r>
        <r>     5.9191     0.0000     0.0293     0.0000 </r>
        <r>     5.9710     0.0000     0.0003     0.0000 </r>
        <r>     6.0229     0.0000     0.0000     0.0000 </r>
        <r>     6.0748     0.0118     0.1684     0.0000 </r>
        <r>     6.1267     0.0082     0.0536     0.0000 </r>
        <r>     6.1785     0.0159     0.1198     0.0000 </r>
        <r>     6.2304     0.0054     0.1304     0.0000 </r>
        <r>     6.2823     0.0424     0.0942     0.0000 </r>
        <r>     6.3342     0.0000     0.0000     0.0000 </r>
        <r>     6.3861     0.0003     0.1118     0.0000 </r>
        <r>     6.4380     0.1017     0.2375     0.0000 </r>
        <r>     6.4899     0.0584     0.0024     0.0000 </r>
        <r>     6.5418     0.0951     0.1523     0.0000 </r>
        <r>     6.5937     0.0263     0.0098     0.0000 </r>
        <r>     6.6456     0.0850     0.1779     0.0000 </r>
        <r>     6.6975     0.0755     0.3620     0.0000 </r>
        <r>     6.7494     0.1990     0.3503     0.0000 </r>
        <r>     6.8012     0.0968     0.3794     0.0000 </r>
        <r>     6.8531     0.0001     0.0038     0.0000 </r>
        <r>     6.9050     0.1540     0.0873     0.0000 </r>
        <r>     6.9569     0.0005     0.0001     0.0000 </r>
        <r>     7.0088     0.0000     0.0000     0.0000 </r>
        <r>     7.0607     0.0018     0.0053     0.0000 </r>
        <r>     7.1126     0.0559     0.2786     0.0000 </r>
        <r>     7.1645     0.0211     0.1663     0.0000 </r>
        <r>     7.2164     0.0006     0.0049     0.0000 </r>
        <r>     7.2683     0.1138     0.3519     0.0000 </r>
[...]
       </set>
       <set comment="band 4">
        <r>  0.0000  0.1877  0.0000 </r>
        <r>  0.0000  0.1877  0.0000 </r>
       </set>
       <set comment="band 5">
        <r>  0.0143  0.0256  0.0000 </r>
        <r>  0.0143  0.0256  0.0000 </r>
       </set>
      </set>
      <set comment="kpoint 8">
       <set comment="band 1">
        <r>  0.0769  0.0266  0.0000 </r>
        <r>  0.0769  0.0266  0.0000 </r>
       </set>
       <set comment="band 2">
        <r>  0.0310  0.0837  0.0000 </r>
        <r>  0.0310  0.0837  0.0000 </r>
       </set>
       <set comment="band 3">
        <r>  0.0169  0.1275  0.0000 </r>
        <r>  0.0169  0.1275  0.0000 </r>
       </set>
       <set comment="band 4">
        <r>  0.0000  0.1898  0.0000 </r>
        <r>  0.0000  0.1898  0.0000 </r>
       </set>
       <set comment="band 5">
        <r>  0.0183  0.1497  0.0000 </r>
        <r>  0.0183  0.1497  0.0000 </r>
       </set>
      </set>
      <set comment="kpoint 9">
       <set comment="band 1">
        <r>  0.0633  0.0432  0.0000 </r>
        <r>  0.0633  0.0432  0.0000 </r>
       </set>
       <set comment="band 2">
        <r>  0.0476  0.0626  0.0000 </r>
        <r>  0.0476  0.0626  0.0000 </r>
       </set>
       <set comment="band 3">
        <r>  0.0172  0.1304  0.0000 </r>
        <r>  0.0172  0.1304  0.0000 </r>
       </set>
       <set comment="band 4">
        <r>  0.0000  0.1945  0.0000 </r>
        <r>  0.0000  0.1946  0.0000 </r>
       </set>
       <set comment="band 5">
        <r>  0.0178  0.1365  0.0000 </r>
        <r>  0.0178  0.1365  0.0000 </r>
       </set>
      </set>
      <set comment="kpoint 10">
       <set comment="band 1">
        <r>  0.0807  0.0220  0.0000 </r>
        <r>  0.0807  0.0220  0.0000 </r>
       </set>
       <set comment="band 2">
        <r>  0.0000  0.1206  0.0000 </r>
        <r>  0.0000  0.1206  0.0000 </r>
       </set>
       <set comment="band 3">
        <r>  0.0482  0.0786  0.0000 </r>
        <r>  0.0482  0.0786  0.0000 </r>
       </set>
       <set comment="band 4">
        <r>  0.0000  0.1893  0.0000 </r>
        <r>  0.0000  0.1893  0.0000 </r>
       </set>
       <set comment="band 5">
        <r>  0.0304  0.1279  0.0000 </r>
        <r>  0.0304  0.1279  0.0000 </r>
       </set>
      </set>
      <set comment="kpoint 11">
       <set comment="band 1">
        <r>  0.0697  0.0353  0.0000 </r>
        <r>  0.0697  0.0353  0.0000 </r>
       </set>
       <set comment="band 2">
        <r>  0.0166  0.0998  0.0000 </r>
        <r>  0.0166  0.0998  0.0000 </r>
       </set>
       <set comment="band 3">
        <r>  0.0490  0.0756  0.0000 </r>
        <r>  0.0490  0.0756  0.0000 </r>
       </set>
       <set comment="band 4">
        <r>  0.0000  0.1929  0.0000 </r>
        <r>  0.0000  0.1929  0.0000 </r>
       </set>
       <set comment="band 5">
        <r>  0.0372  0.1030  0.0000 </r>
        <r>  0.0372  0.1030  0.0000 </r>
       </set>
      </set>
      <set comment="kpoint 12">
       <set comment="band 1">
        <r>  0.0551  0.0531  0.0000 </r>
        <r>  0.0551  0.0531  0.0000 </r>
       </set>
       <set comment="band 2">
        <r>  0.0373  0.0746  0.0000 </r>
        <r>  0.0373  0.0746  0.0000 </r>
       </set>
       <set comment="band 3">
        <r>  0.0449  0.0816  0.0000 </r>
        <r>  0.0449  0.0816  0.0000 </r>
       </set>
       <set comment="band 4">
        <r>  0.0415  0.0896  0.0000 </r>
        <r>  0.0415  0.0896  0.0000 </r>
       </set>
       <set comment="band 5">
        <r>  0.0000  0.2006  0.0000 </r>
        <r>  0.0000  0.2007  0.0000 </r>
       </set>
      </set>
      <set comment="kpoint 13">
       <set comment="band 1">
        <r>  0.0575  0.0500  0.0000 </r>
        <r>  0.0575  0.0500  0.0000 </r>
       </set>
       <set comment="band 2">
        <r>  0.0000  0.1182  0.0000 </r>
        <r>  0.0000  0.1182  0.0000 </r>
       </set>
       <set comment="band 3">
        <r>  0.0822  0.0334  0.0000 </r>
        <r>  0.0822  0.0334  0.0000 </r>
       </set>
       <set comment="band 4">
        <r>  0.0525  0.0746  0.0000 </r>
        <r>  0.0525  0.0746  0.0000 </r>
       </set>
       <set comment="band 5">
        <r>  0.0000  0.1998  0.0000 </r>
        <r>  0.0000  0.1999  0.0000 </r>
       </set>
      </set>
      <set comment="kpoint 14">
       <set comment="band 1">
        <r>  0.0401  0.0708  0.0000 </r>
        <r>  0.0401  0.0708  0.0000 </r>
       </set>
       <set comment="band 2">
        <r>  0.0172  0.0979  0.0000 </r>
        <r>  0.0172  0.0979  0.0000 </r>
       </set>
       <set comment="band 3">
        <r>  0.0790  0.0366  0.0000 </r>
        <r>  0.0790  0.0366  0.0000 </r>
       </set>
       <set comment="band 4">
        <r>  0.0659  0.0538  0.0000 </r>
        <r>  0.0659  0.0538  0.0000 </r>
       </set>
       <set comment="band 5">
        <r>  0.0000  0.2146  0.0000 </r>
        <r>  0.0000  0.2150  0.0000 </r>
       </set>
      </set>
      <set comment="kpoint 15">
       <set comment="band 1">
        <r>  0.0174  0.0976  0.0000 </r>
        <r>  0.0174  0.0976  0.0000 </r>
       </set>
       <set comment="band 2">
        <r>  0.0000  0.1179  0.0000 </r>
        <r>  0.0000  0.1179  0.0000 </r>
       </set>
       <set comment="band 3">
        <r>  0.1055  0.0041  0.0000 </r>
        <r>  0.1055  0.0041  0.0000 </r>
       </set>
       <set comment="band 4">
        <r>  0.0916  0.0208  0.0000 </r>
        <r>  0.0916  0.0208  0.0000 </r>
       </set>
       <set comment="band 5">
        <r>  0.0000  0.2441  0.0000 </r>
        <r>  0.0000  0.2457  0.0000 </r>
       </set>
      </set>
      <set comment="kpoint 16">
       <set comment="band 1">
        <r>  0.0919  0.0083  0.0000 </r>
        <r>  0.0919  0.0083  0.0000 </r>
       </set>
       <set comment="band 2">
        <r>  0.0000  0.1324  0.0000 </r>
        <r>  0.0000  0.1324  0.0000 </r>
       </set>
       <set comment="band 3">
        <r>  0.0000  0.1324  0.0000 </r>
        <r>  0.0000  0.1324  0.0000 </r>
       </set>
       <set comment="band 4">
        <r>  0.0342  0.1457  0.0000 </r>
        <r>  0.0342  0.1457  0.0000 </r>
       </set>
       <set comment="band 5">
        <r>  0.0000  0.0543  0.0000 </r>
        <r>  0.0000  0.0542  0.0000 </r>
       </set>
      </set>
      <set comment="kpoint 17">
       <set comment="band 1">
        <r>  0.0852  0.0165  0.0000 </r>
        <r>  0.0852  0.0165  0.0000 </r>
       </set>
       <set comment="band 2">
        <r>  0.0111  0.1099  0.0000 </r>
        <r>  0.0111  0.1099  0.0000 </r>
       </set>
       <set comment="band 3">
        <r>  0.0000  0.1328  0.0000 </r>
        <r>  0.0000  0.1328  0.0000 </r>
       </set>
       <set comment="band 4">
        <r>  0.0432  0.1349  0.0000 </r>
        <r>  0.0432  0.1349  0.0000 </r>
       </set>
       <set comment="band 5">
        <r>  0.0000  0.0546  0.0000 </r>
        <r>  0.0000  0.0550  0.0000 </r>
       </set>
      </set>
      <set comment="kpoint 18">
       <set comment="band 1">
        <r>  0.0746  0.0294  0.0000 </r>
        <r>  0.0746  0.0294  0.0000 </r>
       </set>
       <set comment="band 2">
        <r>  0.0279  0.0872  0.0000 </r>
        <r>  0.0279  0.0872  0.0000 </r>
       </set>
       <set comment="band 3">
        <r>  0.0000  0.1337  0.0000 </r>
        <r>  0.0000  0.1337  0.0000 </r>
       </set>
       <set comment="band 4">
        <r>  0.0455  0.1337  0.0000 </r>
        <r>  0.0455  0.1337  0.0000 </r>
       </set>
       <set comment="band 5">
        <r>  0.0000  0.1519  0.0000 </r>
        <r>  0.0000  0.1519  0.0000 </r>
       </set>
      </set>
      <set comment="kpoint 19">
       <set comment="band 1">
        <r>  0.0609  0.0462  0.0000 </r>
        <r>  0.0609  0.0462  0.0000 </r>
       </set>
       <set comment="band 2">
        <r>  0.0449  0.0658  0.0000 </r>
        <r>  0.0449  0.0658  0.0000 </r>
       </set>
       <set comment="band 3">
        <r>  0.0000  0.1360  0.0000 </r>
        <r>  0.0000  0.1360  0.0000 </r>
       </set>
       <set comment="band 4">
        <r>  0.0466  0.1360  0.0000 </r>
        <r>  0.0466  0.1361  0.0000 </r>
       </set>
       <set comment="band 5">
        <r>  0.0000  0.1410  0.0000 </r>
        <r>  0.0000  0.1410  0.0000 </r>
       </set>
      </set>
      <set comment="kpoint 20">
       <set comment="band 1">
        <r>  0.0785  0.0246  0.0000 </r>
        <r>  0.0785  0.0246  0.0000 </r>
       </set>
       <set comment="band 2">
        <r>  0.0000  0.1205  0.0000 </r>
        <r>  0.0000  0.1205  0.0000 </r>
       </set>
       <set comment="band 3">
        <r>  0.0225  0.1016  0.0000 </r>
        <r>  0.0225  0.1016  0.0000 </r>
       </set>
       <set comment="band 4">
        <r>  0.0570  0.1173  0.0000 </r>
        <r>  0.0570  0.1173  0.0000 </r>
       </set>
       <set comment="band 5">
        <r>  0.0215  0.1334  0.0000 </r>
        <r>  0.0215  0.1334  0.0000 </r>
       </set>
      </set>
      <set comment="kpoint 21">
       <set comment="band 1">
        <r>  0.0676  0.0378  0.0000 </r>
        <r>  0.0676  0.0378  0.0000 </r>
       </set>
       <set comment="band 2">
        <r>  0.0158  0.1007  0.0000 </r>
        <r>  0.0158  0.1007  0.0000 </r>
       </set>
       <set comment="band 3">
        <r>  0.0269  0.0961  0.0000 </r>
        <r>  0.0269  0.0961  0.0000 </r>
       </set>
       <set comment="band 4">
        <r>  0.0570  0.1178  0.0000 </r>
        <r>  0.0570  0.1178  0.0000 </r>
       </set>
       <set comment="band 5">
        <r>  0.0259  0.1116  0.0000 </r>
        <r>  0.0259  0.1116  0.0000 </r>
       </set>
      </set>
      <set comment="kpoint 22">
       <set comment="band 1">
        <r>  0.0531  0.0553  0.0000 </r>
        <r>  0.0531  0.0553  0.0000 </r>
       </set>
       <set comment="band 2">
        <r>  0.0356  0.0765  0.0000 </r>
        <r>  0.0356  0.0765  0.0000 </r>
       </set>
       <set comment="band 3">
        <r>  0.0266  0.0981  0.0000 </r>
        <r>  0.0266  0.0981  0.0000 </r>
       </set>
       <set comment="band 4">
        <r>  0.0266  0.1022  0.0000 </r>
        <r>  0.0266  0.1022  0.0000 </r>
       </set>
       <set comment="band 5">
        <r>  0.0534  0.1248  0.0000 </r>
        <r>  0.0534  0.1248  0.0000 </r>
       </set>
      </set>
      <set comment="kpoint 23">
       <set comment="band 1">
        <r>  0.0559  0.0519  0.0000 </r>
        <r>  0.0559  0.0519  0.0000 </r>
       </set>
       <set comment="band 2">
        <r>  0.0000  0.1181  0.0000 </r>
        <r>  0.0000  0.1181  0.0000 </r>
       </set>
       <set comment="band 3">
        <r>  0.0641  0.0518  0.0000 </r>
        <r>  0.0641  0.0518  0.0000 </r>
       </set>
       <set comment="band 4">
        <r>  0.0433  0.0831  0.0000 </r>
        <r>  0.0433  0.0831  0.0000 </r>
       </set>
       <set comment="band 5">
        <r>  0.0535  0.1225  0.0000 </r>
        <r>  0.0535  0.1225  0.0000 </r>
       </set>
      </set>
      <set comment="kpoint 24">
       <set comment="band 1">
        <r>  0.0390  0.0721  0.0000 </r>
        <r>  0.0390  0.0721  0.0000 </r>
       </set>
       <set comment="band 2">
        <r>  0.0170  0.0982  0.0000 </r>
        <r>  0.0170  0.0982  0.0000 </r>
       </set>
       <set comment="band 3">
        <r>  0.0647  0.0512  0.0000 </r>
        <r>  0.0647  0.0512  0.0000 </r>
       </set>
       <set comment="band 4">
        <r>  0.0550  0.0647  0.0000 </r>
        <r>  0.0550  0.0647  0.0000 </r>
       </set>
       <set comment="band 5">
        <r>  0.0459  0.1352  0.0000 </r>
        <r>  0.0459  0.1351  0.0000 </r>
       </set>
      </set>
      <set comment="kpoint 25">
       <set comment="band 1">
        <r>  0.0172  0.0977  0.0000 </r>
        <r>  0.0172  0.0977  0.0000 </r>
       </set>
       <set comment="band 2">
        <r>  0.0000  0.1177  0.0000 </r>
        <r>  0.0000  0.1177  0.0000 </r>
       </set>
       <set comment="band 3">
        <r>  0.0937  0.0166  0.0000 </r>
        <r>  0.0937  0.0166  0.0000 </r>
       </set>
       <set comment="band 4">
        <r>  0.0809  0.0320  0.0000 </r>
        <r>  0.0809  0.0320  0.0000 </r>
       </set>
       <set comment="band 5">
        <r>  0.0340  0.1547  0.0000 </r>
        <r>  0.0340  0.1547  0.0000 </r>
       </set>
      </set>
      <set comment="kpoint 26">
       <set comment="band 1">
        <r>  0.0720  0.0325  0.0000 </r>
        <r>  0.0720  0.0325  0.0000 </r>
       </set>
       <set comment="band 2">
        <r>  0.0000  0.1204  0.0000 </r>
        <r>  0.0000  0.1204  0.0000 </r>
       </set>
       <set comment="band 3">
        <r>  0.0000  0.1204  0.0000 </r>
        <r>  0.0000  0.1204  0.0000 </r>
       </set>
       <set comment="band 4">
        <r>  0.1117  0.0517  0.0000 </r>
        <r>  0.1117  0.0517  0.0000 </r>
       </set>
       <set comment="band 5">
        <r>  0.0000  0.1410  0.0000 </r>
        <r>  0.0000  0.1410  0.0000 </r>
       </set>
      </set>
      <set comment="kpoint 27">
       <set comment="band 1">
        <r>  0.0613  0.0453  0.0000 </r>
        <r>  0.0613  0.0453  0.0000 </r>
       </set>
       <set comment="band 2">
        <r>  0.0113  0.1055  0.0000 </r>
        <r>  0.0113  0.1055  0.0000 </r>
       </set>
       <set comment="band 3">
        <r>  0.0000  0.1205  0.0000 </r>
        <r>  0.0000  0.1205  0.0000 </r>
       </set>
       <set comment="band 4">
        <r>  0.1197  0.0402  0.0000 </r>
        <r>  0.1197  0.0402  0.0000 </r>
       </set>
       <set comment="band 5">
        <r>  0.0000  0.1283  0.0000 </r>
        <r>  0.0000  0.1283  0.0000 </r>
       </set>
      </set>
      <set comment="kpoint 28">
       <set comment="band 1">
        <r>  0.0470  0.0626  0.0000 </r>
        <r>  0.0470  0.0626  0.0000 </r>
       </set>
       <set comment="band 2">
        <r>  0.0296  0.0834  0.0000 </r>
        <r>  0.0296  0.0834  0.0000 </r>
       </set>
       <set comment="band 3">
        <r>  0.0000  0.1211  0.0000 </r>
        <r>  0.0000  0.1211  0.0000 </r>
       </set>
       <set comment="band 4">
        <r>  0.0000  0.1231  0.0000 </r>
        <r>  0.0000  0.1231  0.0000 </r>
       </set>
       <set comment="band 5">
        <r>  0.1095  0.0506  0.0000 </r>
        <r>  0.1096  0.0506  0.0000 </r>
       </set>
      </set>
      <set comment="kpoint 29">
       <set comment="band 1">
        <r>  0.0506  0.0581  0.0000 </r>
        <r>  0.0506  0.0581  0.0000 </r>
       </set>
       <set comment="band 2">
        <r>  0.0000  0.1178  0.0000 </r>
        <r>  0.0000  0.1178  0.0000 </r>
       </set>
       <set comment="band 3">
        <r>  0.0209  0.0960  0.0000 </r>
        <r>  0.0209  0.0960  0.0000 </r>
       </set>
       <set comment="band 4">
        <r>  0.0188  0.1051  0.0000 </r>
        <r>  0.0188  0.1051  0.0000 </r>
       </set>
       <set comment="band 5">
        <r>  0.1218  0.0314  0.0000 </r>
        <r>  0.1218  0.0314  0.0000 </r>
       </set>
      </set>
      <set comment="kpoint 30">
       <set comment="band 1">
        <r>  0.0354  0.0762  0.0000 </r>
        <r>  0.0354  0.0762  0.0000 </r>
       </set>
       <set comment="band 2">
        <r>  0.0157  0.0994  0.0000 </r>
        <r>  0.0157  0.0994  0.0000 </r>
       </set>
       <set comment="band 3">
        <r>  0.0266  0.0903  0.0000 </r>
        <r>  0.0266  0.0903  0.0000 </r>
       </set>
       <set comment="band 4">
        <r>  0.0251  0.0940  0.0000 </r>
        <r>  0.0251  0.0940  0.0000 </r>
       </set>
       <set comment="band 5">
        <r>  0.0938  0.0557  0.0000 </r>
        <r>  0.0938  0.0557  0.0000 </r>
       </set>
      </set>
      <set comment="kpoint 31">
       <set comment="band 1">
        <r>  0.0165  0.0982  0.0000 </r>
        <r>  0.0165  0.0982  0.0000 </r>
       </set>
       <set comment="band 2">
        <r>  0.0000  0.1172  0.0000 </r>
        <r>  0.0000  0.1172  0.0000 </r>
       </set>
       <set comment="band 3">
        <r>  0.0613  0.0511  0.0000 </r>
        <r>  0.0613  0.0511  0.0000 </r>
       </set>
       <set comment="band 4">
        <r>  0.0522  0.0622  0.0000 </r>
        <r>  0.0522  0.0622  0.0000 </r>
       </set>
       <set comment="band 5">
        <r>  0.0445  0.0937  0.0000 </r>
        <r>  0.0445  0.0937  0.0000 </r>
       </set>
      </set>
      <set comment="kpoint 32">
       <set comment="band 1">
        <r>  0.0414  0.0689  0.0000 </r>
        <r>  0.0414  0.0689  0.0000 </r>
       </set>
       <set comment="band 2">
        <r>  0.0000  0.1174  0.0000 </r>
        <r>  0.0000  0.1174  0.0000 </r>
       </set>
       <set comment="band 3">
        <r>  0.0000  0.1174  0.0000 </r>
        <r>  0.0000  0.1174  0.0000 </r>
       </set>
       <set comment="band 4">
        <r>  0.1381  0.0014  0.0000 </r>
        <r>  0.1381  0.0014  0.0000 </r>
       </set>
       <set comment="band 5">
        <r>  0.0000  0.1207  0.0000 </r>
        <r>  0.0000  0.1207  0.0000 </r>
       </set>
      </set>
      <set comment="kpoint 33">
       <set comment="band 1">
        <r>  0.0279  0.0848  0.0000 </r>
        <r>  0.0279  0.0848  0.0000 </r>
       </set>
       <set comment="band 2">
        <r>  0.0110  0.1045  0.0000 </r>
        <r>  0.0110  0.1045  0.0000 </r>
       </set>
       <set comment="band 3">
        <r>  0.0000  0.1173  0.0000 </r>
        <r>  0.0000  0.1173  0.0000 </r>
       </set>
       <set comment="band 4">
        <r>  0.0000  0.1180  0.0000 </r>
        <r>  0.0000  0.1180  0.0000 </r>
       </set>
       <set comment="band 5">
        <r>  0.0957  0.0354  0.0000 </r>
        <r>  0.0956  0.0354  0.0000 </r>
       </set>
      </set>
      <set comment="kpoint 34">
       <set comment="band 1">
        <r>  0.0143  0.1004  0.0000 </r>
        <r>  0.0143  0.1004  0.0000 </r>
       </set>
       <set comment="band 2">
        <r>  0.0000  0.1167  0.0000 </r>
        <r>  0.0000  0.1167  0.0000 </r>
       </set>
       <set comment="band 3">
        <r>  0.0202  0.0948  0.0000 </r>
        <r>  0.0202  0.0948  0.0000 </r>
       </set>
       <set comment="band 4">
        <r>  0.0175  0.0984  0.0000 </r>
        <r>  0.0175  0.0984  0.0000 </r>
       </set>
       <set comment="band 5">
        <r>  0.0376  0.0837  0.0000 </r>
        <r>  0.0376  0.0837  0.0000 </r>
       </set>
      </set>
      <set comment="kpoint 35">
       <set comment="band 1">
        <r>  0.0083  0.1070  0.0000 </r>
        <r>  0.0083  0.1070  0.0000 </r>
       </set>
       <set comment="band 2">
        <r>  0.0000  0.1162  0.0000 </r>
        <r>  0.0000  0.1162  0.0000 </r>
       </set>
       <set comment="band 3">
        <r>  0.0000  0.1162  0.0000 </r>
        <r>  0.0000  0.1162  0.0000 </r>
       </set>
       <set comment="band 4">
        <r>  0.0000  0.1164  0.0000 </r>
        <r>  0.0000  0.1164  0.0000 </r>
       </set>
       <set comment="band 5">
        <r>  0.0000  0.1164  0.0000 </r>
        <r>  0.0000  0.1164  0.0000 </r>
       </set>
      </set>
     </set>
    </set>
   </array>
  </projected>
 </calculation>
 <structure name="finalpos" >
  <crystal>
   <varray name="basis" >
    <v>       3.43931245       0.00000000       0.00000000 </v>
    <v>       0.00000000       3.43931245       0.00000000 </v>
    <v>       0.00000000       0.00000000       3.43931245 </v>
   </varray>
   <i name="volume">     40.68318042 </i>
   <varray name="rec_basis" >
    <v>       0.29075579      -0.00000000       0.00000000 </v>
    <v>       0.00000000       0.29075579       0.00000000 </v>
    <v>      -0.00000000      -0.00000000       0.29075579 </v>
   </varray>
  </crystal>
  <varray name="positions" >
   <v>       0.00000000       0.00000000       0.00000000 </v>
   <v>       0.50000000       0.50000000       0.50000000 </v>
  </varray>
 </structure>
</modeling>
