 running on   35 total cores
 distrk:  each k-point on   35 cores,    1 groups
 distr:  one band on    7 cores,    5 groups
 using from now: INCAR     
 vasp.5.4.4.18Apr17-6-g9f103f2a35 (build Apr 24 2023 09:55:28) complex          
  
 POSCAR found type information on POSCAR  Ca Fe B 
 POSCAR found :  3 types and       6 ions
 scaLAPACK will be used
 LDA part: xc-table for Pade appr. of Perdew
 generate k-points for:    8    8    4
 POSCAR, INCAR and KPOINTS ok, starting setup
 FFT: planning ...
 WAVECAR not read
 entering main loop
       N       E                     dE             d eps       ncg     rms          rms(c)
DAV:   1     0.341781996806E+03    0.34178E+03   -0.17040E+04  2250   0.146E+03
DAV:   2    -0.363889708635E+01   -0.34542E+03   -0.33928E+03  2290   0.437E+02
DAV:   3    -0.415823305963E+02   -0.37943E+02   -0.36368E+02  4245   0.122E+02
DAV:   4    -0.437077485431E+02   -0.21254E+01   -0.20473E+01  3270   0.254E+01
DAV:   5    -0.438297259498E+02   -0.12198E+00   -0.12131E+00  3965   0.599E+00    0.376E+01
DAV:   6    -0.108128357649E+03   -0.64299E+02   -0.74001E+02  3155   0.252E+02    0.103E+02
DAV:   7    -0.462320574975E+02    0.61896E+02   -0.10664E+02  2830   0.101E+02    0.358E+01
DAV:   8    -0.295347078129E+02    0.16697E+02   -0.67399E+01  3615   0.818E+01    0.775E+00
DAV:   9    -0.297180499650E+02   -0.18334E+00   -0.46328E+00  3295   0.143E+01    0.631E+00
DAV:  10    -0.296674710050E+02    0.50579E-01   -0.10053E+00  3725   0.476E+00    0.337E+00
DAV:  11    -0.296592813094E+02    0.81897E-02   -0.12456E-01  3510   0.310E+00    0.300E+00
DAV:  12    -0.296444217221E+02    0.14860E-01   -0.81982E-02  3485   0.224E+00    0.158E+00
DAV:  13    -0.296435191418E+02    0.90258E-03   -0.21293E-02  3120   0.108E+00    0.129E+00
DAV:  14    -0.296396249737E+02    0.38942E-02   -0.68976E-03  3395   0.542E-01    0.886E-01
DAV:  15    -0.296387800366E+02    0.84494E-03   -0.29019E-03  3400   0.362E-01    0.498E-01
DAV:  16    -0.296383444025E+02    0.43563E-03   -0.87395E-04  3445   0.244E-01    0.152E-01
DAV:  17    -0.296382657948E+02    0.78608E-04   -0.16819E-04  3515   0.810E-02    0.105E-01
DAV:  18    -0.296382411206E+02    0.24674E-04   -0.50318E-05  2560   0.749E-02    0.471E-02
DAV:  19    -0.296382266187E+02    0.14502E-04   -0.24982E-05  2265   0.274E-02    0.119E-02
DAV:  20    -0.296382269168E+02   -0.29808E-06   -0.21402E-06  1295   0.118E-02
   1 F= -.29638227E+02 E0= -.29637702E+02  d E =-.296382E+02
 BRION: g(F)=  0.582E-01 g(S)=  0.292E+00
 bond charge predicted
       N       E                     dE             d eps       ncg     rms          rms(c)
DAV:   1    -0.306984073314E+02   -0.10602E+01   -0.13924E+01  2675   0.438E+01    0.103E+01
DAV:   2    -0.418129157431E+02   -0.11115E+02   -0.99162E+01  3680   0.799E+01    0.344E+01
DAV:   3    -0.299312116451E+02    0.11882E+02   -0.49200E+01  3385   0.539E+01    0.241E+00
DAV:   4    -0.299469603937E+02   -0.15749E-01   -0.92149E-01  2865   0.521E+00    0.128E+00
DAV:   5    -0.299254346127E+02    0.21526E-01   -0.71375E-02  4075   0.178E+00    0.754E-01
DAV:   6    -0.299188560804E+02    0.65785E-02   -0.24311E-02  3960   0.112E+00    0.319E-01
DAV:   7    -0.299189260572E+02   -0.69977E-04   -0.19364E-03  3275   0.316E-01    0.290E-01
DAV:   8    -0.299193460447E+02   -0.41999E-03   -0.21647E-03  4180   0.248E-01    0.951E-02
DAV:   9    -0.299193416827E+02    0.43619E-05   -0.33786E-04  3505   0.138E-01    0.467E-02
DAV:  10    -0.299193248437E+02    0.16839E-04   -0.52186E-05  2605   0.586E-02    0.111E-02
DAV:  11    -0.299193236768E+02    0.11670E-05   -0.47687E-06  1310   0.251E-02
   2 F= -.29919324E+02 E0= -.29918943E+02  d E =-.281097E+00
 BRION: g(F)=  0.183E-01 g(S)=  0.118E+00 retain N=  1 mean eig= 2.48
 eig:   2.476
 bond charge predicted
       N       E                     dE             d eps       ncg     rms          rms(c)
DAV:   1    -0.323170744372E+02   -0.23977E+01   -0.35464E+01  2785   0.703E+01    0.167E+01
DAV:   2    -0.593972858641E+02   -0.27080E+02   -0.26554E+02  3820   0.129E+02    0.487E+01
DAV:   3    -0.301077474250E+02    0.29290E+02   -0.12257E+02  3370   0.709E+01    0.497E+00
DAV:   4    -0.301298293000E+02   -0.22082E-01   -0.33676E+00  3075   0.958E+00    0.194E+00
DAV:   5    -0.300992408694E+02    0.30588E-01   -0.34058E-01  4005   0.426E+00    0.904E-01
DAV:   6    -0.301066988110E+02   -0.74579E-02   -0.69917E-02  3385   0.116E+00    0.573E-01
DAV:   7    -0.301084509896E+02   -0.17522E-02   -0.12464E-02  3760   0.320E-01    0.407E-01
DAV:   8    -0.301087620849E+02   -0.31110E-03   -0.36733E-03  4060   0.537E-01    0.114E-01
DAV:   9    -0.301102540538E+02   -0.14920E-02   -0.17676E-04  2985   0.104E-01    0.902E-02
DAV:  10    -0.301130612933E+02   -0.28072E-02   -0.25040E-02  2845   0.108E-01    0.285E-02
DAV:  11    -0.301132193220E+02   -0.15803E-03   -0.14812E-03  1315   0.314E-02    0.294E-02
