<?xml version="1.0" encoding="ISO-8859-1"?>
<modeling>
 <generator>
  <i name="program" type="string">vasp </i>
  <i name="version" type="string">5.4.4.18Apr17-6-g9f103f2a35  </i>
  <i name="subversion" type="string">(build Apr 24 2023 09:55:28) complex            parallel </i>
  <i name="platform" type="string">LinuxIFC </i>
  <i name="date" type="string">2024 04 24 </i>
  <i name="time" type="string">03:52:13 </i>
 </generator>
 <incar>
  <i type="string" name="SYSTEM"> DFT routine</i>
  <i type="int" name="ISTART">     0</i>
  <i type="string" name="PREC">acc</i>
  <i type="int" name="IALGO">    38</i>
  <i type="int" name="ICHARG">     2</i>
  <i type="int" name="NELM">   100</i>
  <i type="int" name="IBRION">     1</i>
  <i name="EDIFF">      0.00001000</i>
  <i name="EDIFFG">      0.00010000</i>
  <i type="int" name="NSW">    10</i>
  <i type="int" name="ISIF">     3</i>
  <i name="ENCUT">    400.00000000</i>
  <i name="POTIM">      0.10000000</i>
  <i type="logical" name="LREAL"> F  </i>
  <i type="int" name="ISMEAR">     0</i>
  <i name="SIGMA">      0.01000000</i>
  <i type="logical" name="LWAVE"> F  </i>
  <i type="logical" name="LCHARG"> F  </i>
  <i type="int" name="LORBIT">    10</i>
  <i type="logical" name="LELF"> F  </i>
  <v type="int" name="KPOINT_BSE">    -1     0     0     0</v>
  <i type="int" name="NELM">   100</i>
 </incar>
 <structure name="primitive_cell" >
  <crystal>
   <varray name="basis" >
    <v>      13.69200000       0.00000000       0.00000000 </v>
    <v>       0.00000000       6.67992935       0.18461548 </v>
    <v>       0.00000000       0.00000000       6.68248000 </v>
   </varray>
   <i name="volume">    611.19026339 </i>
   <varray name="rec_basis" >
    <v>       0.07303535      -0.00000000       0.00000000 </v>
    <v>       0.00000000       0.14970218       0.00000000 </v>
    <v>      -0.00000000      -0.00413579       0.14964504 </v>
   </varray>
  </crystal>
  <varray name="positions" >
   <v>      -0.01100000      -0.04040000      -0.47660000 </v>
   <v>       0.02894000      -0.15571000       0.26932000 </v>
   <v>       0.00000000      -0.39842000      -0.39842000 </v>
   <v>       0.00580000       0.32310000      -0.38330000 </v>
   <v>      -0.00580000      -0.38330000       0.32310000 </v>
   <v>      -0.16190000      -0.16750000      -0.20470000 </v>
   <v>       0.11500000       0.26850000       0.31490000 </v>
   <v>      -0.13510000       0.19790000      -0.19610000 </v>
   <v>      -0.02894000       0.26932000      -0.15571000 </v>
   <v>       0.13510000      -0.19610000       0.19790000 </v>
   <v>       0.14100000       0.14080000      -0.16340000 </v>
   <v>      -0.11500000       0.31490000       0.26850000 </v>
   <v>      -0.24280000       0.05210000       0.49450000 </v>
   <v>      -0.14100000      -0.16340000       0.14080000 </v>
   <v>       0.00000000       0.03750000       0.03750000 </v>
   <v>       0.16190000      -0.20470000      -0.16750000 </v>
   <v>      -0.18480000      -0.38650000       0.48170000 </v>
   <v>      -0.15312000       0.03273000      -0.03173000 </v>
   <v>       0.25720000      -0.00550000      -0.44790000 </v>
   <v>       0.15312000      -0.03173000       0.03273000 </v>
   <v>       0.01100000      -0.47660000      -0.04040000 </v>
   <v>       0.24101000       0.00425000      -0.15206000 </v>
   <v>       0.18480000       0.48170000      -0.38650000 </v>
   <v>      -0.25899000       0.34794000      -0.49575000 </v>
   <v>      -0.24101000      -0.15206000       0.00425000 </v>
   <v>       0.25899000      -0.49575000       0.34794000 </v>
   <v>       0.31520000      -0.01830000       0.11350000 </v>
   <v>      -0.31520000       0.11350000      -0.01830000 </v>
   <v>      -0.25720000      -0.44790000      -0.00550000 </v>
   <v>      -0.33810000       0.33250000       0.29530000 </v>
   <v>      -0.36490000      -0.30210000       0.30390000 </v>
   <v>       0.33810000       0.29530000       0.33250000 </v>
   <v>      -0.34688000      -0.46727000       0.46827000 </v>
   <v>      -0.38500000      -0.18510000      -0.23150000 </v>
   <v>      -0.35900000       0.33660000      -0.35920000 </v>
   <v>       0.35900000      -0.35920000       0.33660000 </v>
   <v>       0.24280000       0.49450000       0.05210000 </v>
   <v>       0.36490000       0.30390000      -0.30210000 </v>
   <v>       0.38500000      -0.23150000      -0.18510000 </v>
   <v>       0.34688000       0.46827000      -0.46727000 </v>
   <v>      -0.47106000      -0.23068000       0.34429000 </v>
   <v>       0.48900000       0.02340000       0.45960000 </v>
   <v>      -0.49420000       0.11670000      -0.17690000 </v>
   <v>      -0.50000000      -0.46250000      -0.46250000 </v>
   <v>       0.47106000       0.34429000      -0.23068000 </v>
   <v>      -0.50000000       0.10158000       0.10158000 </v>
   <v>       0.49420000      -0.17690000       0.11670000 </v>
   <v>      -0.48900000       0.45960000       0.02340000 </v>
  </varray>
 </structure>
 <varray name="primitive_index" >
  <v type="int" >        1 </v>
  <v type="int" >       46 </v>
  <v type="int" >       37 </v>
  <v type="int" >       33 </v>
  <v type="int" >       20 </v>
  <v type="int" >       30 </v>
  <v type="int" >       23 </v>
  <v type="int" >       18 </v>
  <v type="int" >       38 </v>
  <v type="int" >       26 </v>
  <v type="int" >       27 </v>
  <v type="int" >       16 </v>
  <v type="int" >        5 </v>
  <v type="int" >       32 </v>
  <v type="int" >       14 </v>
  <v type="int" >       29 </v>
  <v type="int" >        3 </v>
  <v type="int" >       48 </v>
  <v type="int" >       12 </v>
  <v type="int" >       42 </v>
  <v type="int" >        7 </v>
  <v type="int" >       47 </v>
  <v type="int" >        2 </v>
  <v type="int" >       36 </v>
  <v type="int" >       43 </v>
  <v type="int" >       40 </v>
  <v type="int" >        9 </v>
  <v type="int" >        8 </v>
  <v type="int" >       13 </v>
  <v type="int" >       15 </v>
  <v type="int" >       34 </v>
  <v type="int" >       22 </v>
  <v type="int" >       39 </v>
  <v type="int" >       31 </v>
  <v type="int" >       17 </v>
  <v type="int" >       24 </v>
  <v type="int" >       10 </v>
  <v type="int" >       21 </v>
  <v type="int" >       28 </v>
  <v type="int" >       41 </v>
  <v type="int" >       45 </v>
  <v type="int" >        4 </v>
  <v type="int" >       25 </v>
  <v type="int" >       11 </v>
  <v type="int" >       35 </v>
  <v type="int" >       44 </v>
  <v type="int" >       19 </v>
  <v type="int" >        6 </v>
 </varray>
 <kpoints>
  <generation param="Auto">
   <i name="subdivisionlength">     30.00000000 </i>
   <v type="int" name="divisions">       2        4        4 </v>
   <v name="usershift">      0.00000000       0.00000000       0.00000000 </v>
   <v name="genvec1">      0.50000000       0.00000000       0.00000000 </v>
   <v name="genvec2">      0.00000000       0.25000000       0.00000000 </v>
   <v name="genvec3">      0.00000000       0.00000000       0.25000000 </v>
   <v name="shift">      0.00000000       0.00000000       0.00000000 </v>
  </generation>
  <varray name="kpointlist" >
   <v>       0.00000000       0.00000000       0.00000000 </v>
   <v>       0.50000000      -0.00000000       0.00000000 </v>
   <v>       0.00000000       0.25000000       0.00000000 </v>
   <v>       0.50000000       0.25000000       0.00000000 </v>
   <v>       0.00000000       0.50000000       0.00000000 </v>
   <v>       0.50000000       0.50000000       0.00000000 </v>
   <v>       0.00000000       0.25000000       0.25000000 </v>
   <v>       0.50000000       0.25000000       0.25000000 </v>
   <v>       0.00000000       0.50000000       0.25000000 </v>
   <v>       0.50000000       0.50000000       0.25000000 </v>
   <v>       0.00000000      -0.25000000       0.25000000 </v>
   <v>       0.50000000      -0.25000000       0.25000000 </v>
   <v>       0.00000000       0.50000000       0.50000000 </v>
   <v>       0.50000000       0.50000000       0.50000000 </v>
  </varray>
  <varray name="weights" >
   <v>       0.03125000 </v>
   <v>       0.03125000 </v>
   <v>       0.12500000 </v>
   <v>       0.12500000 </v>
   <v>       0.06250000 </v>
   <v>       0.06250000 </v>
   <v>       0.06250000 </v>
   <v>       0.06250000 </v>
   <v>       0.12500000 </v>
   <v>       0.12500000 </v>
   <v>       0.06250000 </v>
   <v>       0.06250000 </v>
   <v>       0.03125000 </v>
   <v>       0.03125000 </v>
  </varray>
 </kpoints>
 <parameters>
  <separator name="general" >
   <i type="string" name="SYSTEM">DFT routine</i>
   <i type="logical" name="LCOMPAT"> F  </i>
  </separator>
  <separator name="electronic" >
   <i type="string" name="PREC">acc</i>
   <i name="ENMAX">    400.00000000</i>
   <i name="ENAUG">    544.56500000</i>
   <i name="EDIFF">      0.00001000</i>
   <i type="int" name="IALGO">    38</i>
   <i type="int" name="IWAVPR">    11</i>
   <i type="int" name="NBANDS">   230</i>
   <i name="NELECT">    382.00000000</i>
   <i type="int" name="TURBO">     0</i>
   <i type="int" name="IRESTART">     0</i>
   <i type="int" name="NREBOOT">     0</i>
   <i type="int" name="NMIN">     0</i>
   <i name="EREF">      0.00000000</i>
   <separator name="electronic smearing" >
    <i type="int" name="ISMEAR">     0</i>
    <i name="SIGMA">      0.01000000</i>
    <i name="KSPACING">      0.50000000</i>
    <i type="logical" name="KGAMMA"> T  </i>
   </separator>
   <separator name="electronic projectors" >
    <i type="logical" name="LREAL"> F  </i>
    <v name="ROPT">      0.00000000      0.00000000      0.00000000</v>
    <i type="int" name="LMAXPAW">  -100</i>
    <i type="int" name="LMAXMIX">     2</i>
    <i type="logical" name="NLSPLINE"> F  </i>
   </separator>
   <separator name="electronic startup" >
    <i type="int" name="ISTART">     0</i>
    <i type="int" name="ICHARG">     2</i>
    <i type="int" name="INIWAV">     1</i>
   </separator>
   <separator name="electronic spin" >
    <i type="int" name="ISPIN">     1</i>
    <i type="logical" name="LNONCOLLINEAR"> F  </i>
    <v name="MAGMOM">      1.00000000      1.00000000      1.00000000      1.00000000      1.00000000      1.00000000      1.00000000      1.00000000      1.00000000      1.00000000      1.00000000      1.00000000      1.00000000      1.00000000      1.00000000      1.00000000      1.00000000      1.00000000      1.00000000      1.00000000
      1.00000000      1.00000000      1.00000000      1.00000000      1.00000000      1.00000000      1.00000000      1.00000000      1.00000000      1.00000000      1.00000000      1.00000000      1.00000000      1.00000000      1.00000000      1.00000000      1.00000000      1.00000000      1.00000000      1.00000000
      1.00000000      1.00000000      1.00000000      1.00000000      1.00000000      1.00000000      1.00000000      1.00000000</v>
    <i name="NUPDOWN">     -1.00000000</i>
    <i type="logical" name="LSORBIT"> F  </i>
    <v name="SAXIS">      0.00000000      0.00000000      1.00000000</v>
    <i type="logical" name="LSPIRAL"> F  </i>
    <v name="QSPIRAL">      0.00000000      0.00000000      0.00000000</v>
    <i type="logical" name="LZEROZ"> F  </i>
   </separator>
   <separator name="electronic exchange-correlation" >
    <i type="logical" name="LASPH"> F  </i>
    <i type="logical" name="LMETAGGA"> F  </i>
   </separator>
   <separator name="electronic convergence" >
    <i type="int" name="NELM">   100</i>
    <i type="int" name="NELMDL">    -5</i>
    <i type="int" name="NELMIN">     2</i>
    <i name="ENINI">    400.00000000</i>
    <separator name="electronic convergence detail" >
     <i type="logical" name="LDIAG"> T  </i>
     <i type="logical" name="LSUBROT"> F  </i>
     <i name="WEIMIN">      0.00100000</i>
     <i name="EBREAK">      0.00000001</i>
     <i name="DEPER">      0.30000000</i>
     <i type="int" name="NRMM">     4</i>
     <i name="TIME">      0.40000000</i>
    </separator>
   </separator>
   <separator name="electronic mixer" >
    <i name="AMIX">      0.40000000</i>
    <i name="BMIX">      1.00000000</i>
    <i name="AMIN">      0.10000000</i>
    <i name="AMIX_MAG">      1.60000000</i>
    <i name="BMIX_MAG">      1.00000000</i>
    <separator name="electronic mixer details" >
     <i type="int" name="IMIX">     4</i>
     <i type="logical" name="MIXFIRST"> F  </i>
     <i type="int" name="MAXMIX">   -45</i>
     <i name="WC">    100.00000000</i>
     <i type="int" name="INIMIX">     1</i>
     <i type="int" name="MIXPRE">     1</i>
     <i type="int" name="MREMOVE">     5</i>
    </separator>
   </separator>
   <separator name="electronic dipolcorrection" >
    <i type="logical" name="LDIPOL"> F  </i>
    <i type="logical" name="LMONO"> F  </i>
    <i type="int" name="IDIPOL">     0</i>
    <i name="EPSILON">      1.00000000</i>
    <v name="DIPOL">   -100.00000000   -100.00000000   -100.00000000</v>
    <i name="EFIELD">      0.00000000</i>
   </separator>
  </separator>
  <separator name="grids" >
   <i type="int" name="NGX">    90</i>
   <i type="int" name="NGY">    48</i>
   <i type="int" name="NGZ">    48</i>
   <i type="int" name="NGXF">   180</i>
   <i type="int" name="NGYF">    96</i>
   <i type="int" name="NGZF">    96</i>
   <i type="logical" name="ADDGRID"> F  </i>
  </separator>
  <separator name="ionic" >
   <i type="int" name="NSW">    10</i>
   <i type="int" name="IBRION">     1</i>
   <i type="int" name="MDALGO">     0</i>
   <i type="int" name="ISIF">     3</i>
   <i name="PSTRESS">      0.00000000</i>
   <i name="EDIFFG">      0.00010000</i>
   <i type="int" name="NFREE">     0</i>
   <i name="POTIM">      0.10000000</i>
   <i name="SMASS">     -3.00000000</i>
   <i name="SCALEE">      1.00000000</i>
  </separator>
  <separator name="ionic md" >
   <i name="TEBEG">      0.00010000</i>
   <i name="TEEND">      0.00010000</i>
   <i type="int" name="NBLOCK">     1</i>
   <i type="int" name="KBLOCK">    10</i>
   <i type="int" name="NPACO">   256</i>
   <i name="APACO">     16.00000000</i>
  </separator>
  <separator name="symmetry" >
   <i type="int" name="ISYM">     2</i>
   <i name="SYMPREC">      0.00001000</i>
  </separator>
  <separator name="dos" >
   <i type="int" name="LORBIT">    10</i>
   <v name="RWIGS">     -1.00000000     -1.00000000     -1.00000000</v>
   <i type="int" name="NEDOS">   301</i>
   <i name="EMIN">     10.00000000</i>
   <i name="EMAX">    -10.00000000</i>
   <i name="EFERMI">      0.00000000</i>
  </separator>
  <separator name="writing" >
   <i type="int" name="NWRITE">     2</i>
   <i type="logical" name="LWAVE"> F  </i>
   <i type="logical" name="LDOWNSAMPLE"> F  </i>
   <i type="logical" name="LCHARG"> F  </i>
   <i type="logical" name="LPARD"> F  </i>
   <i type="logical" name="LVTOT"> F  </i>
   <i type="logical" name="LVHAR"> F  </i>
   <i type="logical" name="LELF"> F  </i>
   <i type="logical" name="LOPTICS"> F  </i>
   <v name="STM">      0.00000000      0.00000000      0.00000000      0.00000000      0.00000000      0.00000000      0.00000000</v>
  </separator>
  <separator name="performance" >
   <i type="int" name="NPAR">     5</i>
   <i type="int" name="NSIM">     4</i>
   <i type="int" name="NBLK">    -1</i>
   <i type="logical" name="LPLANE"> T  </i>
   <i type="logical" name="LSCALAPACK"> T  </i>
   <i type="logical" name="LSCAAWARE"> F  </i>
   <i type="logical" name="LSCALU"> F  </i>
   <i type="logical" name="LASYNC"> F  </i>
   <i type="logical" name="LORBITALREAL"> F  </i>
  </separator>
  <separator name="miscellaneous" >
   <i type="int" name="IDIOT">     3</i>
   <i type="int" name="ISPECIAL">     0</i>
   <i type="logical" name="LMUSIC"> F  </i>
   <v name="POMASS">     91.22400000     58.69000000      1.00000000</v>
   <v name="DARWINR">      0.00000000      0.00000000      0.00000000</v>
   <v name="DARWINV">      1.00000000      1.00000000      1.00000000</v>
   <i type="logical" name="LCORR"> T  </i>
  </separator>
  <i type="logical" name="GGA_COMPAT"> T  </i>
  <i type="logical" name="LBERRY"> F  </i>
  <i type="int" name="ICORELEVEL">     0</i>
  <i type="logical" name="LDAU"> F  </i>
  <i type="int" name="I_CONSTRAINED_M">     0</i>
  <separator name="electronic exchange-correlation" >
   <i type="string" name="GGA">--</i>
   <i type="int" name="VOSKOWN">     0</i>
   <i type="logical" name="LHFCALC"> F  </i>
   <i type="string" name="PRECFOCK"></i>
   <i type="logical" name="LSYMGRAD"> F  </i>
   <i type="logical" name="LHFONE"> F  </i>
   <i type="logical" name="LRHFCALC"> F  </i>
   <i type="logical" name="LTHOMAS"> F  </i>
   <i type="logical" name="LMODELHF"> F  </i>
   <i name="ENCUT4O">     -1.00000000</i>
   <i type="int" name="EXXOEP">     0</i>
   <i type="int" name="FOURORBIT">     0</i>
   <i name="AEXX">      0.00000000</i>
   <i name="HFALPHA">      0.00000000</i>
   <i name="MCALPHA">      0.00000000</i>
   <i name="ALDAX">      1.00000000</i>
   <i name="AGGAX">      1.00000000</i>
   <i name="ALDAC">      1.00000000</i>
   <i name="AGGAC">      1.00000000</i>
   <i type="int" name="NKREDX">     1</i>
   <i type="int" name="NKREDY">     1</i>
   <i type="int" name="NKREDZ">     1</i>
   <i type="logical" name="SHIFTRED"> F  </i>
   <i type="logical" name="ODDONLY"> F  </i>
   <i type="logical" name="EVENONLY"> F  </i>
   <i type="int" name="LMAXFOCK">     0</i>
   <i type="int" name="NMAXFOCKAE">     0</i>
   <i type="logical" name="LFOCKAEDFT"> F  </i>
   <i name="HFSCREEN">      0.00000000</i>
   <i name="HFSCREENC">      0.00000000</i>
   <i type="int" name="NBANDSGWLOW">     0</i>
  </separator>
  <separator name="vdW DFT" >
   <i type="logical" name="LUSE_VDW"> F  </i>
   <i name="Zab_VDW">     -0.84910000</i>
   <i name="PARAM1">      0.12340000</i>
   <i name="PARAM2">      1.00000000</i>
   <i name="PARAM3">      0.00000000</i>
  </separator>
  <separator name="model GW" >
   <i type="int" name="MODEL_GW">     0</i>
   <i name="MODEL_EPS0">      7.63987829</i>
   <i name="MODEL_ALPHA">      1.00000000</i>
  </separator>
  <separator name="linear response parameters" >
   <i type="logical" name="LEPSILON"> F  </i>
   <i type="logical" name="LRPA"> F  </i>
   <i type="logical" name="LNABLA"> F  </i>
   <i type="logical" name="LVEL"> F  </i>
   <i type="int" name="KINTER">     0</i>
   <i name="CSHIFT">      0.10000000</i>
   <i name="OMEGAMAX">     -1.00000000</i>
   <i name="DEG_THRESHOLD">      0.00200000</i>
   <i name="RTIME">     -0.10000000</i>
   <i name="WPLASMAI">      0.00000000</i>
   <v name="DFIELD">      0.00000000      0.00000000      0.00000000</v>
   <v name="WPLASMA">      0.00000000      0.00000000      0.00000000      0.00000000      0.00000000      0.00000000      0.00000000      0.00000000      0.00000000</v>
  </separator>
  <separator name="orbital magnetization" >
   <i type="logical" name="NUCIND"> F  </i>
   <v name="MAGPOS">      0.00000000      0.00000000      0.00000000</v>
   <i type="logical" name="LNICSALL"> T  </i>
   <i type="logical" name="ORBITALMAG"> F  </i>
   <i type="logical" name="LMAGBLOCH"> F  </i>
   <i type="logical" name="LCHIMAG"> F  </i>
   <i type="logical" name="LGAUGE"> T  </i>
   <i type="int" name="MAGATOM">     0</i>
   <v name="MAGDIPOL">      0.00000000      0.00000000      0.00000000</v>
   <v name="AVECCONST">      0.00000000      0.00000000      0.00000000</v>
  </separator>
  <separator name="response functions" >
   <i type="logical" name="LADDER"> F  </i>
   <i type="logical" name="LRPAFORCE"> F  </i>
   <i type="logical" name="LFXC"> F  </i>
   <i type="logical" name="LHARTREE"> T  </i>
   <i type="int" name="IBSE">     0</i>
   <v type="int" name="KPOINT">    -1     0     0     0</v>
   <i type="logical" name="LTCTE"> F  </i>
   <i type="logical" name="LTETE"> F  </i>
   <i type="logical" name="LTRIPLET"> F  </i>
   <i type="logical" name="LFXCEPS"> F  </i>
   <i type="logical" name="LFXHEG"> F  </i>
   <i type="int" name="NATURALO">     2</i>
   <i type="logical" name="L2ORDER"> F  </i>
   <i type="logical" name="LMP2LT"> F  </i>
   <i type="logical" name="LUSEW"> F  </i>
   <i name="ENCUTGW">     -2.00000000</i>
   <i name="ENCUTGWSOFT">     -2.00000000</i>
   <i name="ENCUTLF">     -1.00000000</i>
   <i type="int" name="LMAXMP2">    -1</i>
   <i name="SCISSOR">      0.00000000</i>
   <i type="int" name="NOMEGA">     0</i>
   <i type="int" name="NOMEGAR">     0</i>
   <i type="int" name="NBANDSGW">    -1</i>
   <i type="int" name="NBANDSO">    -1</i>
   <i type="int" name="NBANDSV">    -1</i>
   <i type="int" name="NELM">   100</i>
   <i type="int" name="NELMHF">     1</i>
   <i type="int" name="DIM">     3</i>
   <i type="int" name="ANTIRES">     0</i>
   <i name="OMEGAMAX">    -30.00000000</i>
   <i name="OMEGAMIN">    -30.00000000</i>
   <i name="OMEGATL">   -200.00000000</i>
   <i type="int" name="OMEGAGRID">   140</i>
   <i name="CSHIFT">     -0.10000000</i>
   <i type="logical" name="SELFENERGY"> F  </i>
   <i type="logical" name="LSPECTRAL"> F  </i>
   <i type="logical" name="LSPECTRALGW"> F  </i>
   <i type="logical" name="LSINGLES"> F  </i>
   <i type="logical" name="LFERMIGW"> F  </i>
   <i type="logical" name="ODDONLYGW"> F  </i>
   <i type="logical" name="EVENONLYGW"> F  </i>
   <i type="int" name="NKREDLFX">     1</i>
   <i type="int" name="NKREDLFY">     1</i>
   <i type="int" name="NKREDLFZ">     1</i>
   <i type="int" name="MAXMEM">  2800</i>
   <i type="int" name="TELESCOPE">     0</i>
   <i type="int" name="TAUPAR">     1</i>
   <i type="int" name="OMEGAPAR">    -1</i>
   <i name="LAMBDA">      1.00000000</i>
  </separator>
  <separator name="External order field" >
   <i name="OFIELD_KAPPA">      0.00000000</i>
   <v name="OFIELD_K">      0.00000000      0.00000000      0.00000000</v>
   <i name="OFIELD_Q6_NEAR">      0.00000000</i>
   <i name="OFIELD_Q6_FAR">      0.00000000</i>
   <i name="OFIELD_A">      0.00000000</i>
  </separator>
 </parameters>
 <atominfo>
  <atoms>      48 </atoms>
  <types>       3 </types>
  <array name="atoms" >
   <dimension dim="1">ion</dimension>
   <field type="string">element</field>
   <field type="int">atomtype</field>
   <set>
    <rc><c>Zr</c><c>   1</c></rc>
    <rc><c>Zr</c><c>   1</c></rc>
    <rc><c>Zr</c><c>   1</c></rc>
    <rc><c>Zr</c><c>   1</c></rc>
    <rc><c>Zr</c><c>   1</c></rc>
    <rc><c>Zr</c><c>   1</c></rc>
    <rc><c>Zr</c><c>   1</c></rc>
    <rc><c>Zr</c><c>   1</c></rc>
    <rc><c>Zr</c><c>   1</c></rc>
    <rc><c>Zr</c><c>   1</c></rc>
    <rc><c>Zr</c><c>   1</c></rc>
    <rc><c>Zr</c><c>   1</c></rc>
    <rc><c>Zr</c><c>   1</c></rc>
    <rc><c>Zr</c><c>   1</c></rc>
    <rc><c>Ni</c><c>   2</c></rc>
    <rc><c>Ni</c><c>   2</c></rc>
    <rc><c>Ni</c><c>   2</c></rc>
    <rc><c>Ni</c><c>   2</c></rc>
    <rc><c>Ni</c><c>   2</c></rc>
    <rc><c>Ni</c><c>   2</c></rc>
    <rc><c>Ni</c><c>   2</c></rc>
    <rc><c>Ni</c><c>   2</c></rc>
    <rc><c>Ni</c><c>   2</c></rc>
    <rc><c>Ni</c><c>   2</c></rc>
    <rc><c>Ni</c><c>   2</c></rc>
    <rc><c>Ni</c><c>   2</c></rc>
    <rc><c>Ni</c><c>   2</c></rc>
    <rc><c>Ni</c><c>   2</c></rc>
    <rc><c>Ni</c><c>   2</c></rc>
    <rc><c>Ni</c><c>   2</c></rc>
    <rc><c>Ni</c><c>   2</c></rc>
    <rc><c>Ni</c><c>   2</c></rc>
    <rc><c>Ni</c><c>   2</c></rc>
    <rc><c>Ni</c><c>   2</c></rc>
    <rc><c>H </c><c>   3</c></rc>
    <rc><c>H </c><c>   3</c></rc>
    <rc><c>H </c><c>   3</c></rc>
    <rc><c>H </c><c>   3</c></rc>
    <rc><c>H </c><c>   3</c></rc>
    <rc><c>H </c><c>   3</c></rc>
    <rc><c>H </c><c>   3</c></rc>
    <rc><c>H </c><c>   3</c></rc>
    <rc><c>H </c><c>   3</c></rc>
    <rc><c>H </c><c>   3</c></rc>
    <rc><c>H </c><c>   3</c></rc>
    <rc><c>H </c><c>   3</c></rc>
    <rc><c>H </c><c>   3</c></rc>
    <rc><c>H </c><c>   3</c></rc>
   </set>
  </array>
  <array name="atomtypes" >
   <dimension dim="1">type</dimension>
   <field type="int">atomspertype</field>
   <field type="string">element</field>
   <field>mass</field>
   <field>valence</field>
   <field type="string">pseudopotential</field>
   <set>
    <rc><c>  14</c><c>Zr</c><c>     91.22400000</c><c>     12.00000000</c><c>  PAW_PBE Zr_sv 04Jan2005               </c></rc>
    <rc><c>  20</c><c>Ni</c><c>     58.69000000</c><c>     10.00000000</c><c>  PAW_PBE Ni 02Aug2007                  </c></rc>
    <rc><c>  14</c><c>H </c><c>      1.00000000</c><c>      1.00000000</c><c>  PAW_PBE H 15Jun2001                   </c></rc>
   </set>
  </array>
 </atominfo>
 <structure name="initialpos" >
  <crystal>
   <varray name="basis" >
    <v>      13.69200000       0.00000000       0.00000000 </v>
    <v>       0.00000000       6.67992935       0.18461548 </v>
    <v>       0.00000000       0.00000000       6.68248000 </v>
   </varray>
   <i name="volume">    611.19026339 </i>
   <varray name="rec_basis" >
    <v>       0.07303535      -0.00000000       0.00000000 </v>
    <v>       0.00000000       0.14970218       0.00000000 </v>
    <v>      -0.00000000      -0.00413579       0.14964504 </v>
   </varray>
  </crystal>
  <varray name="positions" >
   <v>       0.98900000       0.95960000       0.52340000 </v>
   <v>       0.18480000       0.48170000       0.61350000 </v>
   <v>       0.81520000       0.61350000       0.48170000 </v>
   <v>       0.48900000       0.02340000       0.45960000 </v>
   <v>       0.75720000       0.05210000       0.49450000 </v>
   <v>       0.51100000       0.45960000       0.02340000 </v>
   <v>       0.01100000       0.52340000       0.95960000 </v>
   <v>       0.68480000       0.11350000       0.98170000 </v>
   <v>       0.31520000       0.98170000       0.11350000 </v>
   <v>       0.24280000       0.49450000       0.05210000 </v>
   <v>       0.50000000       0.53750000       0.53750000 </v>
   <v>       0.25720000       0.99450000       0.55210000 </v>
   <v>       0.74280000       0.55210000       0.99450000 </v>
   <v>       0.00000000       0.03750000       0.03750000 </v>
   <v>       0.66190000       0.33250000       0.29530000 </v>
   <v>       0.88500000       0.31490000       0.26850000 </v>
   <v>       0.64100000       0.33660000       0.64080000 </v>
   <v>       0.86490000       0.19790000       0.80390000 </v>
   <v>       0.49420000       0.82310000       0.11670000 </v>
   <v>       0.99420000       0.61670000       0.32310000 </v>
   <v>       0.36490000       0.30390000       0.69790000 </v>
   <v>       0.33810000       0.29530000       0.33250000 </v>
   <v>       0.11500000       0.26850000       0.31490000 </v>
   <v>       0.35900000       0.64080000       0.33660000 </v>
   <v>       0.50580000       0.11670000       0.82310000 </v>
   <v>       0.13510000       0.80390000       0.19790000 </v>
   <v>       0.14100000       0.14080000       0.83660000 </v>
   <v>       0.38500000       0.76850000       0.81490000 </v>
   <v>       0.16190000       0.79530000       0.83250000 </v>
   <v>       0.83810000       0.83250000       0.79530000 </v>
   <v>       0.61500000       0.81490000       0.76850000 </v>
   <v>       0.85900000       0.83660000       0.14080000 </v>
   <v>       0.00580000       0.32310000       0.61670000 </v>
   <v>       0.63510000       0.69790000       0.30390000 </v>
   <v>       0.47106000       0.34429000       0.76932000 </v>
   <v>       0.74101000       0.34794000       0.50425000 </v>
   <v>       0.00000000       0.60158000       0.60158000 </v>
   <v>       0.97106000       0.26932000       0.84429000 </v>
   <v>       0.65312000       0.53273000       0.46827000 </v>
   <v>       0.25899000       0.50425000       0.34794000 </v>
   <v>       0.34688000       0.46827000       0.53273000 </v>
   <v>       0.15312000       0.96827000       0.03273000 </v>
   <v>       0.75899000       0.84794000       0.00425000 </v>
   <v>       0.50000000       0.10158000       0.10158000 </v>
   <v>       0.52894000       0.76932000       0.34429000 </v>
   <v>       0.02894000       0.84429000       0.26932000 </v>
   <v>       0.24101000       0.00425000       0.84794000 </v>
   <v>       0.84688000       0.03273000       0.96827000 </v>
  </varray>
 </structure>
 <calculation>
  <scstep>
   <time name="dav">   17.04   17.04</time>
   <time name="total">   17.11   17.11</time>
   <energy>
    <i name="alphaZ">   1627.65284464 </i>
    <i name="ewald"> -31519.12507443 </i>
    <i name="hartreedc">  -9666.42749428 </i>
    <i name="XCdc">   1368.53901619 </i>
    <i name="pawpsdc">  33345.58952259 </i>
    <i name="pawaedc"> -34417.16318353 </i>
    <i name="eentropy">     -0.00070223 </i>
    <i name="bandstr">   4015.98610439 </i>
    <i name="atom">  39706.97890092 </i>
    <i name="e_fr_energy">   4462.02993426 </i>
    <i name="e_wo_entrp">   4462.03063649 </i>
    <i name="e_0_energy">   4462.03028538 </i>
   </energy>
  </scstep>
  <scstep>
   <time name="dav">   17.54   17.55</time>
   <time name="total">   17.55   17.55</time>
   <energy>
    <i name="e_fr_energy">    390.93480221 </i>
    <i name="e_wo_entrp">    390.93579151 </i>
    <i name="e_0_energy">    390.93529686 </i>
   </energy>
  </scstep>
  <scstep>
   <time name="dav">   18.44   18.44</time>
   <time name="total">   18.44   18.44</time>
   <energy>
    <i name="e_fr_energy">   -227.33126691 </i>
    <i name="e_wo_entrp">   -227.32966842 </i>
    <i name="e_0_energy">   -227.33046766 </i>
   </energy>
  </scstep>
  <scstep>
   <time name="dav">   31.37   31.37</time>
   <time name="total">   31.37   31.38</time>
   <energy>
    <i name="e_fr_energy">   -306.43180811 </i>
    <i name="e_wo_entrp">   -306.43112685 </i>
    <i name="e_0_energy">   -306.43146748 </i>
   </energy>
  </scstep>
  <scstep>
   <time name="dav">   32.23   32.23</time>
   <time name="total">   32.57   32.57</time>
   <energy>
    <i name="e_fr_energy">   -314.04718647 </i>
    <i name="e_wo_entrp">   -314.04635296 </i>
    <i name="e_0_energy">   -314.04676972 </i>
   </energy>
  </scstep>
  <scstep>
   <time name="dav">   25.56   25.56</time>
   <time name="total">   26.01   26.01</time>
   <energy>
    <i name="e_fr_energy">   -350.09052506 </i>
    <i name="e_wo_entrp">   -350.08952233 </i>
    <i name="e_0_energy">   -350.09002370 </i>
   </energy>
  </scstep>
  <scstep>
   <time name="dav">   26.34   26.35</time>
   <time name="total">   26.79   26.79</time>
   <energy>
    <i name="e_fr_energy">   -281.48856224 </i>
    <i name="e_wo_entrp">   -281.48608632 </i>
    <i name="e_0_energy">   -281.48732428 </i>
   </energy>
  </scstep>
  <scstep>
   <time name="dav">   31.28   31.29</time>
   <time name="total">   31.72   31.72</time>
   <energy>
    <i name="e_fr_energy">   -328.99368029 </i>
    <i name="e_wo_entrp">   -328.99233928 </i>
    <i name="e_0_energy">   -328.99300978 </i>
   </energy>
  </scstep>
  <scstep>
   <time name="dav">   31.02   31.02</time>
   <time name="total">   31.46   31.46</time>
   <energy>
    <i name="e_fr_energy">   -294.54626173 </i>
    <i name="e_wo_entrp">   -294.54301961 </i>
    <i name="e_0_energy">   -294.54464067 </i>
   </energy>
  </scstep>
  <scstep>
   <time name="dav">   29.09   29.09</time>
   <time name="total">   29.53   29.54</time>
   <energy>
    <i name="e_fr_energy">   -282.78386005 </i>
    <i name="e_wo_entrp">   -282.78169423 </i>
    <i name="e_0_energy">   -282.78277714 </i>
   </energy>
  </scstep>
  <scstep>
   <time name="dav">   29.00   29.04</time>
   <time name="total">   29.45   29.49</time>
   <energy>
    <i name="e_fr_energy">   -283.10177846 </i>
    <i name="e_wo_entrp">   -283.09951661 </i>
    <i name="e_0_energy">   -283.10064753 </i>
   </energy>
  </scstep>
  <scstep>
   <time name="dav">   28.08   28.11</time>
   <time name="total">   28.52   28.54</time>
   <energy>
    <i name="e_fr_energy">   -282.81323488 </i>
    <i name="e_wo_entrp">   -282.81143074 </i>
    <i name="e_0_energy">   -282.81233281 </i>
   </energy>
  </scstep>
  <scstep>
   <time name="dav">   32.22   32.25</time>
   <time name="total">   32.66   32.69</time>
   <energy>
    <i name="e_fr_energy">   -281.85448477 </i>
    <i name="e_wo_entrp">   -281.85235608 </i>
    <i name="e_0_energy">   -281.85342043 </i>
   </energy>
  </scstep>
  <scstep>
   <time name="dav">   29.29   29.32</time>
   <time name="total">   29.76   29.78</time>
   <energy>
    <i name="e_fr_energy">   -281.65158122 </i>
    <i name="e_wo_entrp">   -281.64873628 </i>
    <i name="e_0_energy">   -281.65015875 </i>
   </energy>
  </scstep>
  <scstep>
   <time name="dav">   29.64   29.66</time>
   <time name="total">   30.07   30.10</time>
   <energy>
    <i name="e_fr_energy">   -281.55747852 </i>
    <i name="e_wo_entrp">   -281.55522428 </i>
    <i name="e_0_energy">   -281.55635140 </i>
   </energy>
  </scstep>
  <scstep>
   <time name="dav">   28.47   28.49</time>
   <time name="total">   28.90   28.93</time>
   <energy>
    <i name="e_fr_energy">   -281.47028488 </i>
    <i name="e_wo_entrp">   -281.46795637 </i>
    <i name="e_0_energy">   -281.46912063 </i>
   </energy>
  </scstep>
  <scstep>
   <time name="dav">   30.22   30.25</time>
   <time name="total">   30.65   30.68</time>
   <energy>
    <i name="e_fr_energy">   -281.37902071 </i>
    <i name="e_wo_entrp">   -281.37703059 </i>
    <i name="e_0_energy">   -281.37802565 </i>
   </energy>
  </scstep>
  <scstep>
   <time name="dav">   33.48   33.51</time>
   <time name="total">   33.92   33.95</time>
   <energy>
    <i name="e_fr_energy">   -281.22369064 </i>
    <i name="e_wo_entrp">   -281.22153733 </i>
    <i name="e_0_energy">   -281.22261398 </i>
   </energy>
  </scstep>
  <scstep>
   <time name="dav">   28.72   28.74</time>
   <time name="total">   29.16   29.18</time>
   <energy>
    <i name="e_fr_energy">   -281.15837043 </i>
    <i name="e_wo_entrp">   -281.15604045 </i>
    <i name="e_0_energy">   -281.15720544 </i>
   </energy>
  </scstep>
  <scstep>
   <time name="dav">   27.34   27.36</time>
   <time name="total">   27.78   27.79</time>
   <energy>
    <i name="e_fr_energy">   -281.13644106 </i>
    <i name="e_wo_entrp">   -281.13405033 </i>
    <i name="e_0_energy">   -281.13524570 </i>
   </energy>
  </scstep>
  <scstep>
   <time name="dav">   29.20   29.21</time>
   <time name="total">   29.51   29.53</time>
   <energy>
    <i name="e_fr_energy">   -281.11002848 </i>
    <i name="e_wo_entrp">   -281.10742027 </i>
    <i name="e_0_energy">   -281.10872437 </i>
   </energy>
  </scstep>
  <scstep>
   <time name="dav">   22.18   22.19</time>
   <time name="total">   22.47   22.47</time>
   <energy>
    <i name="e_fr_energy">   -281.10144859 </i>
    <i name="e_wo_entrp">   -281.09867612 </i>
    <i name="e_0_energy">   -281.10006236 </i>
   </energy>
  </scstep>
  <scstep>
   <time name="dav">   19.83   19.83</time>
   <time name="total">   20.11   20.11</time>
   <energy>
    <i name="e_fr_energy">   -281.10162118 </i>
    <i name="e_wo_entrp">   -281.09883164 </i>
    <i name="e_0_energy">   -281.10022641 </i>
   </energy>
  </scstep>
  <scstep>
   <time name="dav">   20.15   20.15</time>
   <time name="total">   20.43   20.44</time>
   <energy>
    <i name="e_fr_energy">   -281.10172171 </i>
    <i name="e_wo_entrp">   -281.09893446 </i>
    <i name="e_0_energy">   -281.10032808 </i>
   </energy>
  </scstep>
  <scstep>
   <time name="dav">   15.25   15.25</time>
   <time name="total">   15.53   15.54</time>
   <energy>
    <i name="e_fr_energy">   -281.10167444 </i>
    <i name="e_wo_entrp">   -281.09887702 </i>
    <i name="e_0_energy">   -281.10027573 </i>
   </energy>
  </scstep>
  <scstep>
   <time name="dav">   20.78   20.78</time>
   <time name="total">   21.06   21.07</time>
   <energy>
    <i name="e_fr_energy">   -281.10157785 </i>
    <i name="e_wo_entrp">   -281.09871846 </i>
    <i name="e_0_energy">   -281.10014815 </i>
   </energy>
  </scstep>
  <scstep>
   <time name="dav">   17.52   17.52</time>
   <time name="total">   17.81   17.81</time>
   <energy>
    <i name="e_fr_energy">   -281.10161527 </i>
    <i name="e_wo_entrp">   -281.09875125 </i>
    <i name="e_0_energy">   -281.10018326 </i>
   </energy>
  </scstep>
  <scstep>
   <time name="dav">   14.57   14.58</time>
   <time name="total">   14.86   14.86</time>
   <energy>
    <i name="e_fr_energy">   -281.10156692 </i>
    <i name="e_wo_entrp">   -281.09871659 </i>
    <i name="e_0_energy">   -281.10014175 </i>
   </energy>
  </scstep>
  <scstep>
   <time name="dav">   11.77   11.77</time>
   <time name="total">   11.83   11.83</time>
   <energy>
    <i name="alphaZ">   1627.65284464 </i>
    <i name="ewald"> -31519.12507443 </i>
    <i name="hartreedc">  -9113.40384916 </i>
    <i name="XCdc">   1340.31583169 </i>
    <i name="pawpsdc">  43619.23038157 </i>
    <i name="pawaedc"> -44713.40621617 </i>
    <i name="eentropy">     -0.00285090 </i>
    <i name="bandstr">  -1229.34153140 </i>
    <i name="atom">  39706.97890092 </i>
    <i name="e_fr_energy">   -281.10156325 </i>
    <i name="e_wo_entrp">   -281.09871235 </i>
    <i name="e_0_energy">   -281.10013780 </i>
   </energy>
  </scstep>
  <structure>
   <crystal>
    <varray name="basis" >
     <v>      13.69200000       0.00000000       0.00000000 </v>
     <v>       0.00000000       6.67992935       0.18461548 </v>
     <v>       0.00000000       0.00000000       6.68248000 </v>
    </varray>
    <i name="volume">    611.19026339 </i>
    <varray name="rec_basis" >
     <v>       0.07303535      -0.00000000       0.00000000 </v>
     <v>       0.00000000       0.14970218       0.00000000 </v>
     <v>      -0.00000000      -0.00413579       0.14964504 </v>
    </varray>
   </crystal>
   <varray name="positions" >
    <v>       0.98900000       0.95960000       0.52340000 </v>
    <v>       0.18480000       0.48170000       0.61350000 </v>
    <v>       0.81520000       0.61350000       0.48170000 </v>
    <v>       0.48900000       0.02340000       0.45960000 </v>
    <v>       0.75720000       0.05210000       0.49450000 </v>
    <v>       0.51100000       0.45960000       0.02340000 </v>
    <v>       0.01100000       0.52340000       0.95960000 </v>
    <v>       0.68480000       0.11350000       0.98170000 </v>
    <v>       0.31520000       0.98170000       0.11350000 </v>
    <v>       0.24280000       0.49450000       0.05210000 </v>
    <v>       0.50000000       0.53750000       0.53750000 </v>
    <v>       0.25720000       0.99450000       0.55210000 </v>
    <v>       0.74280000       0.55210000       0.99450000 </v>
    <v>       0.00000000       0.03750000       0.03750000 </v>
    <v>       0.66190000       0.33250000       0.29530000 </v>
    <v>       0.88500000       0.31490000       0.26850000 </v>
    <v>       0.64100000       0.33660000       0.64080000 </v>
    <v>       0.86490000       0.19790000       0.80390000 </v>
    <v>       0.49420000       0.82310000       0.11670000 </v>
    <v>       0.99420000       0.61670000       0.32310000 </v>
    <v>       0.36490000       0.30390000       0.69790000 </v>
    <v>       0.33810000       0.29530000       0.33250000 </v>
    <v>       0.11500000       0.26850000       0.31490000 </v>
    <v>       0.35900000       0.64080000       0.33660000 </v>
    <v>       0.50580000       0.11670000       0.82310000 </v>
    <v>       0.13510000       0.80390000       0.19790000 </v>
    <v>       0.14100000       0.14080000       0.83660000 </v>
    <v>       0.38500000       0.76850000       0.81490000 </v>
    <v>       0.16190000       0.79530000       0.83250000 </v>
    <v>       0.83810000       0.83250000       0.79530000 </v>
    <v>       0.61500000       0.81490000       0.76850000 </v>
    <v>       0.85900000       0.83660000       0.14080000 </v>
    <v>       0.00580000       0.32310000       0.61670000 </v>
    <v>       0.63510000       0.69790000       0.30390000 </v>
    <v>       0.47106000       0.34429000       0.76932000 </v>
    <v>       0.74101000       0.34794000       0.50425000 </v>
    <v>       0.00000000       0.60158000       0.60158000 </v>
    <v>       0.97106000       0.26932000       0.84429000 </v>
    <v>       0.65312000       0.53273000       0.46827000 </v>
    <v>       0.25899000       0.50425000       0.34794000 </v>
    <v>       0.34688000       0.46827000       0.53273000 </v>
    <v>       0.15312000       0.96827000       0.03273000 </v>
    <v>       0.75899000       0.84794000       0.00425000 </v>
    <v>       0.50000000       0.10158000       0.10158000 </v>
    <v>       0.52894000       0.76932000       0.34429000 </v>
    <v>       0.02894000       0.84429000       0.26932000 </v>
    <v>       0.24101000       0.00425000       0.84794000 </v>
    <v>       0.84688000       0.03273000       0.96827000 </v>
   </varray>
  </structure>
  <varray name="forces" >
   <v>       0.41395792      -0.24683804       1.10259204 </v>
   <v>      -0.20803836       0.58530250      -1.47736164 </v>
   <v>       0.20803836      -1.49296777       0.54426433 </v>
   <v>       0.41395792       1.10899053      -0.21628274 </v>
   <v>      -0.43468253      -0.27340112      -0.23276770 </v>
   <v>      -0.41395792      -0.24683804       1.10259204 </v>
   <v>      -0.41395792       1.10899053      -0.21628274 </v>
   <v>      -0.20803836      -1.49296777       0.54426433 </v>
   <v>       0.20803836       0.58530250      -1.47736164 </v>
   <v>       0.43468253      -0.22512566      -0.27972739 </v>
   <v>      -0.00000000      -0.02229703      -0.02292178 </v>
   <v>      -0.43468253      -0.22512566      -0.27972739 </v>
   <v>       0.43468253      -0.27340112      -0.23276770 </v>
   <v>      -0.00000000      -0.02229703      -0.02292178 </v>
   <v>      -0.08941564       0.07831792      -1.17351250 </v>
   <v>       0.05928165      -0.41016560      -0.34842158 </v>
   <v>       0.74022312      -0.37698440       2.45194093 </v>
   <v>      -1.55866581       1.25544919      -0.39076909 </v>
   <v>      -0.10370868       0.95555758      -1.27994199 </v>
   <v>      -0.10370868      -1.30585244       0.91983216 </v>
   <v>      -1.55866581      -0.42530397       1.24417429 </v>
   <v>       0.08941564      -1.17522826       0.04586765 </v>
   <v>      -0.05928165      -0.33695703      -0.41963481 </v>
   <v>      -0.74022312       2.46141991      -0.30910124 </v>
   <v>       0.10370868      -1.30585244       0.91983216 </v>
   <v>       1.55866581      -0.42530397       1.24417429 </v>
   <v>       0.74022312       2.46141991      -0.30910124 </v>
   <v>       0.05928165      -0.33695703      -0.41963481 </v>
   <v>      -0.08941564      -1.17522826       0.04586765 </v>
   <v>       0.08941564       0.07831792      -1.17351250 </v>
   <v>      -0.05928165      -0.41016560      -0.34842158 </v>
   <v>      -0.74022312      -0.37698440       2.45194093 </v>
   <v>       0.10370868       0.95555758      -1.27994199 </v>
   <v>       1.55866581       1.25544919      -0.39076909 </v>
   <v>       0.17116456      -0.16485454       0.06624818 </v>
   <v>       0.19824964      -0.28930579      -0.03835091 </v>
   <v>      -0.00000000      -0.17538918      -0.18030344 </v>
   <v>       0.17116456       0.07077729      -0.16296139 </v>
   <v>       0.08183409       0.21165335       0.22948112 </v>
   <v>      -0.19824964      -0.03034368      -0.29025488 </v>
   <v>      -0.08183409       0.22354622       0.21791239 </v>
   <v>       0.08183409       0.22354622       0.21791239 </v>
   <v>      -0.19824964      -0.28930579      -0.03835091 </v>
   <v>      -0.00000000      -0.17538918      -0.18030344 </v>
   <v>      -0.17116456       0.07077729      -0.16296139 </v>
   <v>      -0.17116456      -0.16485454       0.06624818 </v>
   <v>       0.19824964      -0.03034368      -0.29025488 </v>
   <v>      -0.08183409       0.21165335       0.22948112 </v>
  </varray>
  <varray name="stress" >
   <v>     -51.62133446      -0.00000000      -0.00000000 </v>
   <v>      -0.00000000      -6.14703437       1.88731515 </v>
   <v>      -0.00000000       1.88731515      -6.04271363 </v>
  </varray>
  <energy>
   <i name="e_fr_energy">   -281.10156325 </i>
   <i name="e_wo_entrp">   -281.10013780 </i>
   <i name="e_0_energy">     -0.00285090 </i>
  </energy>
  <time name="totalsc">  747.89  748.22</time>
 </calculation>
 <calculation>
  <scstep>
   <time name="dav">   16.89   16.90</time>
   <time name="total">   17.17   17.18</time>
   <energy>
    <i name="alphaZ">   1635.64982905 </i>
    <i name="ewald"> -31618.58571088 </i>
    <i name="hartreedc">  -9086.00505152 </i>
    <i name="XCdc">   1342.67651602 </i>
    <i name="pawpsdc">  43618.34473657 </i>
    <i name="pawaedc"> -44712.50541746 </i>
    <i name="eentropy">     -0.00312853 </i>
    <i name="bandstr">  -1168.57913349 </i>
    <i name="atom">  39706.97890092 </i>
    <i name="e_fr_energy">   -282.02845932 </i>
    <i name="e_wo_entrp">   -282.02533079 </i>
    <i name="e_0_energy">   -282.02689506 </i>
   </energy>
  </scstep>
  <scstep>
   <time name="dav">   22.24   22.24</time>
   <time name="total">   22.52   22.52</time>
   <energy>
    <i name="e_fr_energy">   -282.86500683 </i>
    <i name="e_wo_entrp">   -282.86265581 </i>
    <i name="e_0_energy">   -282.86383132 </i>
   </energy>
  </scstep>
  <scstep>
   <time name="dav">   22.05   22.06</time>
   <time name="total">   22.33   22.34</time>
   <energy>
    <i name="e_fr_energy">   -281.95995425 </i>
    <i name="e_wo_entrp">   -281.95699784 </i>
    <i name="e_0_energy">   -281.95847605 </i>
   </energy>
  </scstep>
  <scstep>
   <time name="dav">   22.63   22.63</time>
   <time name="total">   22.90   22.91</time>
   <energy>
    <i name="e_fr_energy">   -281.97035300 </i>
    <i name="e_wo_entrp">   -281.96816248 </i>
    <i name="e_0_energy">   -281.96925774 </i>
   </energy>
  </scstep>
  <scstep>
   <time name="dav">   25.02   25.02</time>
   <time name="total">   25.29   25.30</time>
   <energy>
    <i name="e_fr_energy">   -281.93443262 </i>
    <i name="e_wo_entrp">   -281.93177240 </i>
    <i name="e_0_energy">   -281.93310251 </i>
   </energy>
  </scstep>
  <scstep>
   <time name="dav">   26.16   26.16</time>
   <time name="total">   26.44   26.44</time>
   <energy>
    <i name="e_fr_energy">   -281.91424127 </i>
    <i name="e_wo_entrp">   -281.91175233 </i>
    <i name="e_0_energy">   -281.91299680 </i>
   </energy>
  </scstep>
  <scstep>
   <time name="dav">   23.38   23.38</time>
   <time name="total">   23.66   23.66</time>
   <energy>
    <i name="e_fr_energy">   -281.91156437 </i>
    <i name="e_wo_entrp">   -281.90897355 </i>
    <i name="e_0_energy">   -281.91026896 </i>
   </energy>
  </scstep>
  <scstep>
   <time name="dav">   23.06   23.07</time>
   <time name="total">   23.34   23.35</time>
   <energy>
    <i name="e_fr_energy">   -281.91387194 </i>
    <i name="e_wo_entrp">   -281.91131083 </i>
    <i name="e_0_energy">   -281.91259139 </i>
   </energy>
  </scstep>
  <scstep>
   <time name="dav">   25.30   25.30</time>
   <time name="total">   25.57   25.58</time>
   <energy>
    <i name="e_fr_energy">   -281.91086817 </i>
    <i name="e_wo_entrp">   -281.90826660 </i>
    <i name="e_0_energy">   -281.90956739 </i>
   </energy>
  </scstep>
  <scstep>
   <time name="dav">   24.09   24.10</time>
   <time name="total">   24.37   24.38</time>
   <energy>
    <i name="e_fr_energy">   -281.91073796 </i>
    <i name="e_wo_entrp">   -281.90814699 </i>
    <i name="e_0_energy">   -281.90944248 </i>
   </energy>
  </scstep>
  <scstep>
   <time name="dav">   23.11   23.12</time>
   <time name="total">   23.39   23.40</time>
   <energy>
    <i name="e_fr_energy">   -281.91075241 </i>
    <i name="e_wo_entrp">   -281.90816653 </i>
    <i name="e_0_energy">   -281.90945947 </i>
   </energy>
  </scstep>
  <scstep>
   <time name="dav">   16.49   16.49</time>
   <time name="total">   16.55   16.55</time>
   <energy>
    <i name="alphaZ">   1635.64982905 </i>
    <i name="ewald"> -31618.58571088 </i>
    <i name="hartreedc">  -9044.97400123 </i>
    <i name="XCdc">   1340.50366742 </i>
    <i name="pawpsdc">  43665.37409645 </i>
    <i name="pawaedc"> -44759.27395860 </i>
    <i name="eentropy">     -0.00258809 </i>
    <i name="bandstr">  -1207.58098471 </i>
    <i name="atom">  39706.97890092 </i>
    <i name="e_fr_energy">   -281.91074966 </i>
    <i name="e_wo_entrp">   -281.90816157 </i>
    <i name="e_0_energy">   -281.90945562 </i>
   </energy>
  </scstep>
  <structure>
   <crystal>
    <varray name="basis" >
     <v>      13.63780217      -0.00000000       0.00000000 </v>
     <v>       0.00000000       6.67680742       0.18549666 </v>
     <v>      -0.00000000       0.00096709       6.67938361 </v>
    </varray>
    <i name="volume">    608.20204494 </i>
    <varray name="rec_basis" >
     <v>       0.07332560      -0.00000000       0.00000000 </v>
     <v>       0.00000000       0.14977278      -0.00002169 </v>
     <v>      -0.00000000      -0.00415942       0.14971502 </v>
    </varray>
   </crystal>
   <varray name="positions" >
    <v>       0.98929171       0.95924347       0.52500183 </v>
    <v>       0.18465340       0.48254541       0.61134355 </v>
    <v>       0.81534660       0.61134355       0.48254541 </v>
    <v>       0.48929171       0.02500183       0.45924347 </v>
    <v>       0.75689369       0.05170510       0.49417483 </v>
    <v>       0.51070829       0.45924347       0.02500183 </v>
    <v>       0.01070829       0.52500183       0.95924347 </v>
    <v>       0.68465340       0.11134355       0.98254541 </v>
    <v>       0.31534660       0.98254541       0.11134355 </v>
    <v>       0.24310631       0.49417483       0.05170510 </v>
    <v>       0.50000000       0.53746779       0.53746779 </v>
    <v>       0.25689369       0.99417483       0.55170510 </v>
    <v>       0.74310631       0.55170510       0.99417483 </v>
    <v>      -0.00000000       0.03746779       0.03746779 </v>
    <v>       0.66183699       0.33261312       0.29360249 </v>
    <v>       0.88504177       0.31430755       0.26801330 </v>
    <v>       0.64152162       0.33605548       0.64435529 </v>
    <v>       0.86380163       0.19971338       0.80328569 </v>
    <v>       0.49412692       0.82448021       0.11481382 </v>
    <v>       0.99412692       0.61481382       0.32448021 </v>
    <v>       0.36380163       0.30328569       0.69971338 </v>
    <v>       0.33816301       0.29360249       0.33261312 </v>
    <v>       0.11495823       0.26801330       0.31430755 </v>
    <v>       0.35847838       0.64435529       0.33605548 </v>
    <v>       0.50587308       0.11481382       0.82448021 </v>
    <v>       0.13619837       0.80328569       0.19971338 </v>
    <v>       0.14152162       0.14435529       0.83605548 </v>
    <v>       0.38504177       0.76801330       0.81430755 </v>
    <v>       0.16183699       0.79360249       0.83261312 </v>
    <v>       0.83816301       0.83261312       0.79360249 </v>
    <v>       0.61495823       0.81430755       0.76801330 </v>
    <v>       0.85847838       0.83605548       0.14435529 </v>
    <v>       0.00587308       0.32448021       0.61481382 </v>
    <v>       0.63619837       0.69971338       0.30328569 </v>
    <v>       0.47118062       0.34405188       0.76942223 </v>
    <v>       0.74114970       0.34752212       0.50420617 </v>
    <v>      -0.00000000       0.60132667       0.60132667 </v>
    <v>       0.97118062       0.26942223       0.84405188 </v>
    <v>       0.65317767       0.53303571       0.46859289 </v>
    <v>       0.25885030       0.50420617       0.34752212 </v>
    <v>       0.34682233       0.46859289       0.53303571 </v>
    <v>       0.15317767       0.96859289       0.03303571 </v>
    <v>       0.75885030       0.84752212       0.00420617 </v>
    <v>       0.50000000       0.10132667       0.10132667 </v>
    <v>       0.52881938       0.76942223       0.34405188 </v>
    <v>       0.02881938       0.84405188       0.26942223 </v>
    <v>       0.24114970       0.00420617       0.84752212 </v>
    <v>       0.84682233       0.03303571       0.96859289 </v>
   </varray>
  </structure>
  <varray name="forces" >
   <v>       0.42929969      -0.26638132       1.03069048 </v>
   <v>      -0.20506481       0.62966639      -1.41642267 </v>
   <v>       0.20506481      -1.43327769       0.59029484 </v>
   <v>       0.42929969       1.03765633      -0.23780497 </v>
   <v>      -0.44261988      -0.28118075      -0.24087912 </v>
   <v>      -0.42929969      -0.26638132       1.03069048 </v>
   <v>      -0.42929969       1.03765633      -0.23780497 </v>
   <v>      -0.20506481      -1.43327769       0.59029484 </v>
   <v>       0.20506481       0.62966639      -1.41642267 </v>
   <v>       0.44261988      -0.23301905      -0.28772815 </v>
   <v>       0.00000000      -0.02640433      -0.02714415 </v>
   <v>      -0.44261988      -0.23301905      -0.28772815 </v>
   <v>       0.44261988      -0.28118075      -0.24087912 </v>
   <v>       0.00000000      -0.02640433      -0.02714415 </v>
   <v>      -0.12755969       0.12469819      -0.90456386 </v>
   <v>       0.05480700      -0.44456976      -0.36722380 </v>
   <v>       0.76837382      -0.31962780       2.20158895 </v>
   <v>      -1.45556461       1.20553738      -0.33049082 </v>
   <v>      -0.00772331       0.88319669      -1.16607084 </v>
   <v>      -0.00772331      -1.19002565       0.85064478 </v>
   <v>      -1.45556461      -0.36366981       1.19594683 </v>
   <v>       0.12755969      -0.90766361       0.09966040 </v>
   <v>      -0.05480700      -0.35480160      -0.45454529 </v>
   <v>      -0.76837382       2.20957891      -0.25868296 </v>
   <v>       0.00772331      -1.19002565       0.85064478 </v>
   <v>       1.45556461      -0.36366981       1.19594683 </v>
   <v>       0.76837382       2.20957891      -0.25868296 </v>
   <v>       0.05480700      -0.35480160      -0.45454529 </v>
   <v>      -0.12755969      -0.90766361       0.09966040 </v>
   <v>       0.12755969       0.12469819      -0.90456386 </v>
   <v>      -0.05480700      -0.44456976      -0.36722380 </v>
   <v>      -0.76837382      -0.31962780       2.20158895 </v>
   <v>       0.00772331       0.88319669      -1.16607084 </v>
   <v>       1.45556461       1.20553738      -0.33049082 </v>
   <v>       0.14251487      -0.22095089       0.07091852 </v>
   <v>       0.14949464      -0.32314714      -0.04001775 </v>
   <v>      -0.00000000      -0.16518528      -0.16981363 </v>
   <v>       0.14251487       0.07699561      -0.21890731 </v>
   <v>       0.07584355       0.21018791       0.18934131 </v>
   <v>      -0.14949464      -0.03107495      -0.32412936 </v>
   <v>      -0.07584355       0.18346223       0.21533857 </v>
   <v>       0.07584355       0.18346223       0.21533857 </v>
   <v>      -0.14949464      -0.32314714      -0.04001775 </v>
   <v>      -0.00000000      -0.16518528      -0.16981363 </v>
   <v>      -0.14251487       0.07699561      -0.21890731 </v>
   <v>      -0.14251487      -0.22095089       0.07091852 </v>
   <v>       0.14949464      -0.03107495      -0.32412936 </v>
   <v>      -0.07584355       0.21018791       0.18934131 </v>
  </varray>
  <varray name="stress" >
   <v>     -48.49430826      -0.00000000      -0.00000000 </v>
   <v>      -0.00000000      -5.29939836       2.27615765 </v>
   <v>      -0.00000000       2.27615765      -5.17358447 </v>
  </varray>
  <energy>
   <i name="e_fr_energy">   -281.91074966 </i>
   <i name="e_wo_entrp">   -281.90945562 </i>
   <i name="e_0_energy">     -0.00258809 </i>
  </energy>
  <time name="totalsc">  284.38  284.45</time>
 </calculation>
 <calculation>
  <scstep>
   <time name="dav">   16.95   16.96</time>
   <time name="total">   17.23   17.24</time>
   <energy>
    <i name="alphaZ">   1698.54320603 </i>
    <i name="ewald"> -32289.34924341 </i>
    <i name="hartreedc">  -8923.17492029 </i>
    <i name="XCdc">   1359.54296723 </i>
    <i name="pawpsdc">  43666.84790120 </i>
    <i name="pawaedc"> -44760.72744669 </i>
    <i name="eentropy">     -0.00248772 </i>
    <i name="bandstr">   -750.22693929 </i>
    <i name="atom">  39706.97890092 </i>
    <i name="e_fr_energy">   -291.56806202 </i>
    <i name="e_wo_entrp">   -291.56557431 </i>
    <i name="e_0_energy">   -291.56681817 </i>
   </energy>
  </scstep>
  <scstep>
   <time name="dav">   20.93   20.94</time>
   <time name="total">   21.21   21.22</time>
   <energy>
    <i name="e_fr_energy">   -328.91657944 </i>
    <i name="e_wo_entrp">   -328.91552312 </i>
    <i name="e_0_energy">   -328.91605128 </i>
   </energy>
  </scstep>
  <scstep>
   <time name="dav">   21.04   21.05</time>
   <time name="total">   21.32   21.33</time>
   <energy>
    <i name="e_fr_energy">   -284.61268294 </i>
    <i name="e_wo_entrp">   -284.61079153 </i>
    <i name="e_0_energy">   -284.61173723 </i>
   </energy>
  </scstep>
  <scstep>
   <time name="dav">   24.25   24.25</time>
   <time name="total">   24.52   24.53</time>
   <energy>
    <i name="e_fr_energy">   -290.03347516 </i>
    <i name="e_wo_entrp">   -290.03178065 </i>
    <i name="e_0_energy">   -290.03262791 </i>
   </energy>
  </scstep>
  <scstep>
   <time name="dav">   26.24   26.24</time>
   <time name="total">   26.52   26.52</time>
   <energy>
    <i name="e_fr_energy">   -287.32051690 </i>
    <i name="e_wo_entrp">   -287.31877011 </i>
    <i name="e_0_energy">   -287.31964350 </i>
   </energy>
  </scstep>
  <scstep>
   <time name="dav">   23.06   23.06</time>
   <time name="total">   23.33   23.34</time>
   <energy>
    <i name="e_fr_energy">   -286.51678001 </i>
    <i name="e_wo_entrp">   -286.51382859 </i>
    <i name="e_0_energy">   -286.51530430 </i>
   </energy>
  </scstep>
  <scstep>
   <time name="dav">   23.76   23.76</time>
   <time name="total">   24.04   24.04</time>
   <energy>
    <i name="e_fr_energy">   -286.59468062 </i>
    <i name="e_wo_entrp">   -286.59314108 </i>
    <i name="e_0_energy">   -286.59391085 </i>
   </energy>
  </scstep>
  <scstep>
   <time name="dav">   23.06   23.07</time>
   <time name="total">   23.34   23.35</time>
   <energy>
    <i name="e_fr_energy">   -286.39722544 </i>
    <i name="e_wo_entrp">   -286.39464364 </i>
    <i name="e_0_energy">   -286.39593454 </i>
   </energy>
  </scstep>
  <scstep>
   <time name="dav">   24.90   24.90</time>
   <time name="total">   25.17   25.18</time>
   <energy>
    <i name="e_fr_energy">   -286.44747208 </i>
    <i name="e_wo_entrp">   -286.44490729 </i>
    <i name="e_0_energy">   -286.44618969 </i>
   </energy>
  </scstep>
  <scstep>
   <time name="dav">   25.45   25.46</time>
   <time name="total">   25.73   25.74</time>
   <energy>
    <i name="e_fr_energy">   -286.36642546 </i>
    <i name="e_wo_entrp">   -286.36425997 </i>
    <i name="e_0_energy">   -286.36534272 </i>
   </energy>
  </scstep>
  <scstep>
   <time name="dav">   23.92   23.93</time>
   <time name="total">   24.20   24.21</time>
   <energy>
    <i name="e_fr_energy">   -286.36372537 </i>
    <i name="e_wo_entrp">   -286.36167152 </i>
    <i name="e_0_energy">   -286.36269845 </i>
   </energy>
  </scstep>
  <scstep>
   <time name="dav">   21.41   21.42</time>
   <time name="total">   21.69   21.70</time>
   <energy>
    <i name="e_fr_energy">   -286.36320098 </i>
    <i name="e_wo_entrp">   -286.36113548 </i>
    <i name="e_0_energy">   -286.36216823 </i>
   </energy>
  </scstep>
  <scstep>
   <time name="dav">   23.48   23.48</time>
   <time name="total">   23.76   23.76</time>
   <energy>
    <i name="e_fr_energy">   -286.36485897 </i>
    <i name="e_wo_entrp">   -286.36274855 </i>
    <i name="e_0_energy">   -286.36380376 </i>
   </energy>
  </scstep>
  <scstep>
   <time name="dav">   25.00   25.01</time>
   <time name="total">   25.28   25.29</time>
   <energy>
    <i name="e_fr_energy">   -286.36370844 </i>
    <i name="e_wo_entrp">   -286.36164455 </i>
    <i name="e_0_energy">   -286.36267650 </i>
   </energy>
  </scstep>
  <scstep>
   <time name="dav">   22.60   22.60</time>
   <time name="total">   22.88   22.88</time>
   <energy>
    <i name="e_fr_energy">   -286.36354068 </i>
    <i name="e_wo_entrp">   -286.36146514 </i>
    <i name="e_0_energy">   -286.36250291 </i>
   </energy>
  </scstep>
  <scstep>
   <time name="dav">   21.96   21.96</time>
   <time name="total">   22.24   22.24</time>
   <energy>
    <i name="e_fr_energy">   -286.36352200 </i>
    <i name="e_wo_entrp">   -286.36143750 </i>
    <i name="e_0_energy">   -286.36247975 </i>
   </energy>
  </scstep>
  <scstep>
   <time name="dav">   12.17   12.17</time>
   <time name="total">   12.23   12.24</time>
   <energy>
    <i name="alphaZ">   1698.54320603 </i>
    <i name="ewald"> -32289.34924341 </i>
    <i name="hartreedc">  -8612.24900232 </i>
    <i name="XCdc">   1342.74621013 </i>
    <i name="pawpsdc">  44374.75300109 </i>
    <i name="pawaedc"> -45467.35310245 </i>
    <i name="eentropy">     -0.00208597 </i>
    <i name="bandstr">  -1040.43140356 </i>
    <i name="atom">  39706.97890092 </i>
    <i name="e_fr_energy">   -286.36351955 </i>
    <i name="e_wo_entrp">   -286.36143358 </i>
    <i name="e_0_energy">   -286.36247656 </i>
   </energy>
  </scstep>
  <structure>
   <crystal>
    <varray name="basis" >
     <v>      13.22014323      -0.00000000       0.00000000 </v>
     <v>       0.00000000       6.65472898       0.19448810 </v>
     <v>      -0.00000000       0.01056505       6.65756200 </v>
    </varray>
    <i name="volume">    585.68164019 </i>
    <varray name="rec_basis" >
     <v>       0.07564215      -0.00000000       0.00000000 </v>
     <v>       0.00000000       0.15027605      -0.00023848 </v>
     <v>      -0.00000000      -0.00439003       0.15021210 </v>
    </varray>
   </crystal>
   <varray name="positions" >
    <v>       0.99180537       0.95605582       0.53741239 </v>
    <v>       0.18345269       0.49007854       0.59420083 </v>
    <v>       0.81654731       0.59420083       0.49007854 </v>
    <v>       0.49180537       0.03741239       0.45605582 </v>
    <v>       0.75430203       0.04834265       0.49138847 </v>
    <v>       0.50819463       0.45605582       0.03741239 </v>
    <v>       0.00819463       0.53741239       0.95605582 </v>
    <v>       0.68345269       0.09420083       0.99007854 </v>
    <v>       0.31654731       0.99007854       0.09420083 </v>
    <v>       0.24569797       0.49138847       0.04834265 </v>
    <v>       0.50000000       0.53715205       0.53715205 </v>
    <v>       0.25430203       0.99138847       0.54834265 </v>
    <v>       0.74569797       0.54834265       0.99138847 </v>
    <v>       0.00000000       0.03715205       0.03715205 </v>
    <v>       0.66109010       0.33410605       0.28274686 </v>
    <v>       0.88536268       0.30899123       0.26377073 </v>
    <v>       0.64602065       0.33222899       0.67078183 </v>
    <v>       0.85527892       0.21413192       0.79893420 </v>
    <v>       0.49408170       0.83504508       0.10057989 </v>
    <v>       0.99408170       0.60057989       0.33504508 </v>
    <v>       0.35527892       0.29893420       0.71413192 </v>
    <v>       0.33890990       0.28274686       0.33410605 </v>
    <v>       0.11463732       0.26377073       0.30899123 </v>
    <v>       0.35397935       0.67078183       0.33222899 </v>
    <v>       0.50591830       0.10057989       0.83504508 </v>
    <v>       0.14472108       0.79893420       0.21413192 </v>
    <v>       0.14602065       0.17078183       0.83222899 </v>
    <v>       0.38536268       0.76377073       0.80899123 </v>
    <v>       0.16109010       0.78274686       0.83410605 </v>
    <v>       0.83890990       0.83410605       0.78274686 </v>
    <v>       0.61463732       0.80899123       0.76377073 </v>
    <v>       0.85397935       0.83222899       0.17078183 </v>
    <v>       0.00591830       0.33504508       0.60057989 </v>
    <v>       0.64472108       0.71413192       0.29893420 </v>
    <v>       0.47201508       0.34140923       0.77034346 </v>
    <v>       0.74202503       0.34365742       0.50383508 </v>
    <v>       0.00000000       0.59935138       0.59935138 </v>
    <v>       0.97201508       0.27034346       0.84140923 </v>
    <v>       0.65362175       0.53554919       0.47078669 </v>
    <v>       0.25797497       0.50383508       0.34365742 </v>
    <v>       0.34637825       0.47078669       0.53554919 </v>
    <v>       0.15362175       0.97078669       0.03554919 </v>
    <v>       0.75797497       0.84365742       0.00383508 </v>
    <v>       0.50000000       0.09935138       0.09935138 </v>
    <v>       0.52798492       0.77034346       0.34140923 </v>
    <v>       0.02798492       0.84140923       0.27034346 </v>
    <v>       0.24202503       0.00383508       0.84365742 </v>
    <v>       0.84637825       0.03554919       0.97078669 </v>
   </varray>
  </structure>
  <varray name="forces" >
   <v>       0.46575402      -0.37227206       0.44134117 </v>
   <v>      -0.17526975       0.97085001      -0.77238194 </v>
   <v>       0.17526975      -0.79890860       0.94914101 </v>
   <v>       0.46575402       0.45145740      -0.35993713 </v>
   <v>      -0.40475995      -0.36725485      -0.22059184 </v>
   <v>      -0.46575402      -0.37227206       0.44134117 </v>
   <v>      -0.46575402       0.45145740      -0.35993713 </v>
   <v>      -0.17526975      -0.79890860       0.94914101 </v>
   <v>       0.17526975       0.97085001      -0.77238194 </v>
   <v>       0.40475995      -0.21036157      -0.37320892 </v>
   <v>       0.00000000       0.01960232       0.02015156 </v>
   <v>      -0.40475995      -0.21036157      -0.37320892 </v>
   <v>       0.40475995      -0.36725485      -0.22059184 </v>
   <v>       0.00000000       0.01960232       0.02015156 </v>
   <v>      -0.27444728       0.37473401       0.52891465 </v>
   <v>       0.04981554      -0.67833939      -0.51079182 </v>
   <v>       0.78078618       0.03219575       0.84492745 </v>
   <v>      -0.73589485       0.79339116       0.05111848 </v>
   <v>       0.60490431       0.06144731      -0.24035036 </v>
   <v>       0.60490431      -0.24195621       0.05478375 </v>
   <v>      -0.73589485       0.02918012       0.79450057 </v>
   <v>       0.27444728       0.51836007       0.38920319 </v>
   <v>      -0.04981554      -0.49185651      -0.69219201 </v>
   <v>      -0.78078618       0.84371548       0.05552610 </v>
   <v>      -0.60490431      -0.24195621       0.05478375 </v>
   <v>       0.73589485       0.02918012       0.79450057 </v>
   <v>       0.78078618       0.84371548       0.05552610 </v>
   <v>       0.04981554      -0.49185651      -0.69219201 </v>
   <v>      -0.27444728       0.51836007       0.38920319 </v>
   <v>       0.27444728       0.37473401       0.52891465 </v>
   <v>      -0.04981554      -0.67833939      -0.51079182 </v>
   <v>      -0.78078618       0.03219575       0.84492745 </v>
   <v>      -0.60490431       0.06144731      -0.24035036 </v>
   <v>       0.73589485       0.79339116       0.05111848 </v>
   <v>      -0.04784868      -0.55035526       0.10959871 </v>
   <v>      -0.22528397      -0.64772738      -0.01727686 </v>
   <v>      -0.00000000      -0.02157609      -0.02218064 </v>
   <v>      -0.04784868       0.12476143      -0.54711733 </v>
   <v>       0.12642324       0.27845971      -0.11052044 </v>
   <v>       0.22528397       0.00062436      -0.64795745 </v>
   <v>      -0.12642324      -0.11817121       0.27530010 </v>
   <v>       0.12642324      -0.11817121       0.27530010 </v>
   <v>       0.22528397      -0.64772738      -0.01727686 </v>
   <v>      -0.00000000      -0.02157609      -0.02218064 </v>
   <v>       0.04784868       0.12476143      -0.54711733 </v>
   <v>       0.04784868      -0.55035526       0.10959871 </v>
   <v>      -0.22528397       0.00062436      -0.64795745 </v>
   <v>      -0.12642324       0.27845971      -0.11052044 </v>
  </varray>
  <varray name="stress" >
   <v>     -28.49311906       0.00000000      -0.00000000 </v>
   <v>       0.00000000       1.61952834       3.45391518 </v>
   <v>      -0.00000000       3.45391518       1.81044241 </v>
  </varray>
  <energy>
   <i name="e_fr_energy">   -286.36351955 </i>
   <i name="e_wo_entrp">   -286.36247656 </i>
   <i name="e_0_energy">     -0.00208597 </i>
  </energy>
  <time name="totalsc">  395.54  395.63</time>
 </calculation>
 <calculation>
  <scstep>
   <time name="dav">   16.98   16.98</time>
   <time name="total">   17.27   17.27</time>
   <energy>
    <i name="alphaZ">   1715.02253751 </i>
    <i name="ewald"> -32445.12223816 </i>
    <i name="hartreedc">  -8595.58494330 </i>
    <i name="XCdc">   1347.66205300 </i>
    <i name="pawpsdc">  44375.69830187 </i>
    <i name="pawaedc"> -45468.24332389 </i>
    <i name="eentropy">     -0.00306965 </i>
    <i name="bandstr">   -923.98944661 </i>
    <i name="atom">  39706.97890092 </i>
    <i name="e_fr_energy">   -287.58122831 </i>
    <i name="e_wo_entrp">   -287.57815866 </i>
    <i name="e_0_energy">   -287.57969349 </i>
   </energy>
  </scstep>
  <scstep>
   <time name="dav">   22.24   22.25</time>
   <time name="total">   22.52   22.53</time>
   <energy>
    <i name="e_fr_energy">   -290.44946192 </i>
    <i name="e_wo_entrp">   -290.44607511 </i>
    <i name="e_0_energy">   -290.44776852 </i>
   </energy>
  </scstep>
  <scstep>
   <time name="dav">   21.94   21.95</time>
   <time name="total">   22.22   22.23</time>
   <energy>
    <i name="e_fr_energy">   -287.39440617 </i>
    <i name="e_wo_entrp">   -287.39216369 </i>
    <i name="e_0_energy">   -287.39328493 </i>
   </energy>
  </scstep>
  <scstep>
   <time name="dav">   22.89   22.89</time>
   <time name="total">   23.17   23.17</time>
   <energy>
    <i name="e_fr_energy">   -287.49405079 </i>
    <i name="e_wo_entrp">   -287.48983832 </i>
    <i name="e_0_energy">   -287.49194455 </i>
   </energy>
  </scstep>
  <scstep>
   <time name="dav">   24.71   24.71</time>
   <time name="total">   24.99   25.00</time>
   <energy>
    <i name="e_fr_energy">   -287.25390047 </i>
    <i name="e_wo_entrp">   -287.25117153 </i>
    <i name="e_0_energy">   -287.25253600 </i>
   </energy>
  </scstep>
  <scstep>
   <time name="dav">   25.10   25.10</time>
   <time name="total">   25.38   25.38</time>
   <energy>
    <i name="e_fr_energy">   -287.23438835 </i>
    <i name="e_wo_entrp">   -287.23214625 </i>
    <i name="e_0_energy">   -287.23326730 </i>
   </energy>
  </scstep>
  <scstep>
   <time name="dav">   23.08   23.09</time>
   <time name="total">   23.36   23.37</time>
   <energy>
    <i name="e_fr_energy">   -287.21745624 </i>
    <i name="e_wo_entrp">   -287.21489937 </i>
    <i name="e_0_energy">   -287.21617780 </i>
   </energy>
  </scstep>
  <scstep>
   <time name="dav">   23.50   23.51</time>
   <time name="total">   23.78   23.79</time>
   <energy>
    <i name="e_fr_energy">   -287.22724237 </i>
    <i name="e_wo_entrp">   -287.22507204 </i>
    <i name="e_0_energy">   -287.22615720 </i>
   </energy>
  </scstep>
  <scstep>
   <time name="dav">   25.32   25.33</time>
   <time name="total">   25.60   25.61</time>
   <energy>
    <i name="e_fr_energy">   -287.21670856 </i>
    <i name="e_wo_entrp">   -287.21426156 </i>
    <i name="e_0_energy">   -287.21548506 </i>
   </energy>
  </scstep>
  <scstep>
   <time name="dav">   24.23   24.24</time>
   <time name="total">   24.51   24.52</time>
   <energy>
    <i name="e_fr_energy">   -287.21604051 </i>
    <i name="e_wo_entrp">   -287.21370675 </i>
    <i name="e_0_energy">   -287.21487363 </i>
   </energy>
  </scstep>
  <scstep>
   <time name="dav">   22.37   22.37</time>
