<?xml version="1.0" encoding="ISO-8859-1"?>
<modeling>
 <generator>
  <i name="program" type="string">vasp </i>
  <i name="version" type="string">5.4.4.18Apr17-6-g9f103f2a35  </i>
  <i name="subversion" type="string">(build Apr 24 2023 09:55:28) complex            parallel </i>
  <i name="platform" type="string">LinuxIFC </i>
  <i name="date" type="string">2024 04 16 </i>
  <i name="time" type="string">07:12:55 </i>
 </generator>
 <incar>
  <i type="string" name="SYSTEM"> DFT routine</i>
  <i type="int" name="ISTART">     0</i>
  <i type="string" name="PREC">acc</i>
  <i type="int" name="IALGO">    38</i>
  <i type="int" name="ICHARG">     2</i>
  <i type="int" name="NELM">   100</i>
  <i type="int" name="IBRION">     1</i>
  <i name="EDIFF">      0.00001000</i>
  <i name="EDIFFG">      0.00010000</i>
  <i type="int" name="NSW">     3</i>
  <i type="int" name="ISIF">     3</i>
  <i name="ENCUT">    400.00000000</i>
  <i name="POTIM">      0.10000000</i>
  <i type="logical" name="LREAL"> F  </i>
  <i type="int" name="ISMEAR">     0</i>
  <i name="SIGMA">      0.01000000</i>
  <i type="logical" name="LWAVE"> F  </i>
  <i type="logical" name="LCHARG"> F  </i>
  <i type="int" name="LORBIT">    10</i>
  <i type="logical" name="LELF"> F  </i>
  <v type="int" name="KPOINT_BSE">    -1     0     0     0</v>
  <i type="int" name="NELM">   100</i>
 </incar>
 <structure name="primitive_cell" >
  <crystal>
   <varray name="basis" >
    <v>       3.54292000       0.00000000       0.00000000 </v>
    <v>       0.00000000       3.54292000       0.00000000 </v>
    <v>       0.00000000       0.00000000       3.67788500 </v>
   </varray>
   <i name="volume">     46.16585015 </i>
   <varray name="rec_basis" >
    <v>       0.28225306       0.00000000       0.00000000 </v>
    <v>       0.00000000       0.28225306       0.00000000 </v>
    <v>       0.00000000       0.00000000       0.27189540 </v>
   </varray>
  </crystal>
  <varray name="positions" >
   <v>      -0.50000000      -0.50000000       0.02566000 </v>
   <v>       0.00000000       0.00000000       0.02772000 </v>
   <v>       0.00000000       0.00000000      -0.49562000 </v>
  </varray>
 </structure>
 <varray name="primitive_index" >
  <v type="int" >        1 </v>
  <v type="int" >        6 </v>
  <v type="int" >        3 </v>
 </varray>
 <kpoints>
  <generation param="Auto">
   <i name="subdivisionlength">     30.00000000 </i>
   <v type="int" name="divisions">       8        8        4 </v>
   <v name="usershift">      0.00000000       0.00000000       0.00000000 </v>
   <v name="genvec1">      0.12500000       0.00000000       0.00000000 </v>
   <v name="genvec2">      0.00000000       0.12500000       0.00000000 </v>
   <v name="genvec3">      0.00000000       0.00000000       0.25000000 </v>
   <v name="shift">      0.00000000       0.00000000       0.00000000 </v>
  </generation>
  <varray name="kpointlist" >
   <v>       0.00000000       0.00000000       0.00000000 </v>
   <v>       0.12500000       0.00000000       0.00000000 </v>
   <v>       0.25000000       0.00000000       0.00000000 </v>
   <v>       0.37500000       0.00000000       0.00000000 </v>
   <v>       0.50000000       0.00000000       0.00000000 </v>
   <v>       0.12500000       0.12500000       0.00000000 </v>
   <v>       0.25000000       0.12500000       0.00000000 </v>
   <v>       0.37500000       0.12500000       0.00000000 </v>
   <v>       0.50000000       0.12500000       0.00000000 </v>
   <v>       0.25000000       0.25000000       0.00000000 </v>
   <v>       0.37500000       0.25000000       0.00000000 </v>
   <v>       0.50000000       0.25000000       0.00000000 </v>
   <v>       0.37500000       0.37500000       0.00000000 </v>
   <v>       0.50000000       0.37500000       0.00000000 </v>
   <v>       0.50000000       0.50000000       0.00000000 </v>
   <v>       0.00000000       0.00000000       0.25000000 </v>
   <v>       0.12500000       0.00000000       0.25000000 </v>
   <v>       0.25000000       0.00000000       0.25000000 </v>
   <v>       0.37500000       0.00000000       0.25000000 </v>
   <v>       0.50000000       0.00000000       0.25000000 </v>
   <v>       0.12500000       0.12500000       0.25000000 </v>
   <v>       0.25000000       0.12500000       0.25000000 </v>
   <v>       0.37500000       0.12500000       0.25000000 </v>
   <v>       0.50000000       0.12500000       0.25000000 </v>
   <v>       0.25000000       0.25000000       0.25000000 </v>
   <v>       0.37500000       0.25000000       0.25000000 </v>
   <v>       0.50000000       0.25000000       0.25000000 </v>
   <v>       0.37500000       0.37500000       0.25000000 </v>
   <v>       0.50000000       0.37500000       0.25000000 </v>
   <v>       0.50000000       0.50000000       0.25000000 </v>
   <v>       0.00000000       0.00000000       0.50000000 </v>
   <v>       0.12500000       0.00000000       0.50000000 </v>
   <v>       0.25000000       0.00000000       0.50000000 </v>
   <v>       0.37500000       0.00000000       0.50000000 </v>
   <v>       0.50000000       0.00000000       0.50000000 </v>
   <v>       0.12500000       0.12500000       0.50000000 </v>
   <v>       0.25000000       0.12500000       0.50000000 </v>
   <v>       0.37500000       0.12500000       0.50000000 </v>
   <v>       0.50000000       0.12500000       0.50000000 </v>
   <v>       0.25000000       0.25000000       0.50000000 </v>
   <v>       0.37500000       0.25000000       0.50000000 </v>
   <v>       0.50000000       0.25000000       0.50000000 </v>
   <v>       0.37500000       0.37500000       0.50000000 </v>
   <v>       0.50000000       0.37500000       0.50000000 </v>
   <v>       0.50000000       0.50000000       0.50000000 </v>
  </varray>
  <varray name="weights" >
   <v>       0.00390625 </v>
   <v>       0.01562500 </v>
   <v>       0.01562500 </v>
   <v>       0.01562500 </v>
   <v>       0.00781250 </v>
   <v>       0.01562500 </v>
   <v>       0.03125000 </v>
   <v>       0.03125000 </v>
   <v>       0.01562500 </v>
   <v>       0.01562500 </v>
   <v>       0.03125000 </v>
   <v>       0.01562500 </v>
   <v>       0.01562500 </v>
   <v>       0.01562500 </v>
   <v>       0.00390625 </v>
   <v>       0.00781250 </v>
   <v>       0.03125000 </v>
   <v>       0.03125000 </v>
   <v>       0.03125000 </v>
   <v>       0.01562500 </v>
   <v>       0.03125000 </v>
   <v>       0.06250000 </v>
   <v>       0.06250000 </v>
   <v>       0.03125000 </v>
   <v>       0.03125000 </v>
   <v>       0.06250000 </v>
   <v>       0.03125000 </v>
   <v>       0.03125000 </v>
   <v>       0.03125000 </v>
   <v>       0.00781250 </v>
   <v>       0.00390625 </v>
   <v>       0.01562500 </v>
   <v>       0.01562500 </v>
   <v>       0.01562500 </v>
   <v>       0.00781250 </v>
   <v>       0.01562500 </v>
   <v>       0.03125000 </v>
   <v>       0.03125000 </v>
   <v>       0.01562500 </v>
   <v>       0.01562500 </v>
   <v>       0.03125000 </v>
   <v>       0.01562500 </v>
   <v>       0.01562500 </v>
   <v>       0.01562500 </v>
   <v>       0.00390625 </v>
  </varray>
 </kpoints>
 <parameters>
  <separator name="general" >
   <i type="string" name="SYSTEM">DFT routine</i>
   <i type="logical" name="LCOMPAT"> F  </i>
  </separator>
  <separator name="electronic" >
   <i type="string" name="PREC">acc</i>
   <i name="ENMAX">    400.00000000</i>
   <i name="ENAUG">    535.51400000</i>
   <i name="EDIFF">      0.00001000</i>
   <i type="int" name="IALGO">    38</i>
   <i type="int" name="IWAVPR">    11</i>
   <i type="int" name="NBANDS">    25</i>
   <i name="NELECT">     42.00000000</i>
   <i type="int" name="TURBO">     0</i>
   <i type="int" name="IRESTART">     0</i>
   <i type="int" name="NREBOOT">     0</i>
   <i type="int" name="NMIN">     0</i>
   <i name="EREF">      0.00000000</i>
   <separator name="electronic smearing" >
    <i type="int" name="ISMEAR">     0</i>
    <i name="SIGMA">      0.01000000</i>
    <i name="KSPACING">      0.50000000</i>
    <i type="logical" name="KGAMMA"> T  </i>
   </separator>
   <separator name="electronic projectors" >
    <i type="logical" name="LREAL"> F  </i>
    <v name="ROPT">      0.00000000      0.00000000      0.00000000</v>
    <i type="int" name="LMAXPAW">  -100</i>
    <i type="int" name="LMAXMIX">     2</i>
    <i type="logical" name="NLSPLINE"> F  </i>
   </separator>
   <separator name="electronic startup" >
    <i type="int" name="ISTART">     0</i>
    <i type="int" name="ICHARG">     2</i>
    <i type="int" name="INIWAV">     1</i>
   </separator>
   <separator name="electronic spin" >
    <i type="int" name="ISPIN">     1</i>
    <i type="logical" name="LNONCOLLINEAR"> F  </i>
    <v name="MAGMOM">      1.00000000      1.00000000      1.00000000      1.00000000      1.00000000      1.00000000</v>
    <i name="NUPDOWN">     -1.00000000</i>
    <i type="logical" name="LSORBIT"> F  </i>
    <v name="SAXIS">      0.00000000      0.00000000      1.00000000</v>
    <i type="logical" name="LSPIRAL"> F  </i>
    <v name="QSPIRAL">      0.00000000      0.00000000      0.00000000</v>
    <i type="logical" name="LZEROZ"> F  </i>
   </separator>
   <separator name="electronic exchange-correlation" >
    <i type="logical" name="LASPH"> F  </i>
    <i type="logical" name="LMETAGGA"> F  </i>
   </separator>
   <separator name="electronic convergence" >
    <i type="int" name="NELM">   100</i>
    <i type="int" name="NELMDL">    -5</i>
    <i type="int" name="NELMIN">     2</i>
    <i name="ENINI">    400.00000000</i>
    <separator name="electronic convergence detail" >
     <i type="logical" name="LDIAG"> T  </i>
     <i type="logical" name="LSUBROT"> F  </i>
     <i name="WEIMIN">      0.00100000</i>
     <i name="EBREAK">      0.00000010</i>
     <i name="DEPER">      0.30000000</i>
     <i type="int" name="NRMM">     4</i>
     <i name="TIME">      0.40000000</i>
    </separator>
   </separator>
   <separator name="electronic mixer" >
    <i name="AMIX">      0.40000000</i>
    <i name="BMIX">      1.00000000</i>
    <i name="AMIN">      0.10000000</i>
    <i name="AMIX_MAG">      1.60000000</i>
    <i name="BMIX_MAG">      1.00000000</i>
    <separator name="electronic mixer details" >
     <i type="int" name="IMIX">     4</i>
     <i type="logical" name="MIXFIRST"> F  </i>
     <i type="int" name="MAXMIX">   -45</i>
     <i name="WC">    100.00000000</i>
     <i type="int" name="INIMIX">     1</i>
     <i type="int" name="MIXPRE">     1</i>
     <i type="int" name="MREMOVE">     5</i>
    </separator>
   </separator>
   <separator name="electronic dipolcorrection" >
    <i type="logical" name="LDIPOL"> F  </i>
    <i type="logical" name="LMONO"> F  </i>
    <i type="int" name="IDIPOL">     0</i>
    <i name="EPSILON">      1.00000000</i>
    <v name="DIPOL">   -100.00000000   -100.00000000   -100.00000000</v>
    <i name="EFIELD">      0.00000000</i>
   </separator>
  </separator>
  <separator name="grids" >
   <i type="int" name="NGX">    24</i>
   <i type="int" name="NGY">    24</i>
   <i type="int" name="NGZ">    48</i>
   <i type="int" name="NGXF">    48</i>
   <i type="int" name="NGYF">    48</i>
   <i type="int" name="NGZF">    96</i>
   <i type="logical" name="ADDGRID"> F  </i>
  </separator>
  <separator name="ionic" >
   <i type="int" name="NSW">     3</i>
   <i type="int" name="IBRION">     1</i>
   <i type="int" name="MDALGO">     0</i>
   <i type="int" name="ISIF">     3</i>
   <i name="PSTRESS">      0.00000000</i>
   <i name="EDIFFG">      0.00010000</i>
   <i type="int" name="NFREE">     0</i>
   <i name="POTIM">      0.10000000</i>
   <i name="SMASS">     -3.00000000</i>
   <i name="SCALEE">      1.00000000</i>
  </separator>
  <separator name="ionic md" >
   <i name="TEBEG">      0.00010000</i>
   <i name="TEEND">      0.00010000</i>
   <i type="int" name="NBLOCK">     1</i>
   <i type="int" name="KBLOCK">     3</i>
   <i type="int" name="NPACO">   256</i>
   <i name="APACO">     16.00000000</i>
  </separator>
  <separator name="symmetry" >
   <i type="int" name="ISYM">     2</i>
   <i name="SYMPREC">      0.00001000</i>
  </separator>
  <separator name="dos" >
   <i type="int" name="LORBIT">    10</i>
   <v name="RWIGS">     -1.00000000     -1.00000000     -1.00000000</v>
   <i type="int" name="NEDOS">   301</i>
   <i name="EMIN">     10.00000000</i>
   <i name="EMAX">    -10.00000000</i>
   <i name="EFERMI">      0.00000000</i>
  </separator>
  <separator name="writing" >
   <i type="int" name="NWRITE">     2</i>
   <i type="logical" name="LWAVE"> F  </i>
   <i type="logical" name="LDOWNSAMPLE"> F  </i>
   <i type="logical" name="LCHARG"> F  </i>
   <i type="logical" name="LPARD"> F  </i>
   <i type="logical" name="LVTOT"> F  </i>
   <i type="logical" name="LVHAR"> F  </i>
   <i type="logical" name="LELF"> F  </i>
   <i type="logical" name="LOPTICS"> F  </i>
   <v name="STM">      0.00000000      0.00000000      0.00000000      0.00000000      0.00000000      0.00000000      0.00000000</v>
  </separator>
  <separator name="performance" >
   <i type="int" name="NPAR">     5</i>
   <i type="int" name="NSIM">     4</i>
   <i type="int" name="NBLK">    -1</i>
   <i type="logical" name="LPLANE"> T  </i>
   <i type="logical" name="LSCALAPACK"> T  </i>
   <i type="logical" name="LSCAAWARE"> F  </i>
   <i type="logical" name="LSCALU"> F  </i>
   <i type="logical" name="LASYNC"> F  </i>
   <i type="logical" name="LORBITALREAL"> F  </i>
  </separator>
  <separator name="miscellaneous" >
   <i type="int" name="IDIOT">     3</i>
   <i type="int" name="ISPECIAL">     0</i>
   <i type="logical" name="LMUSIC"> F  </i>
   <v name="POMASS">     40.07800000     55.84700000     10.81100000</v>
   <v name="DARWINR">      0.00000000      0.00000000      0.00000000</v>
   <v name="DARWINV">      1.00000000      1.00000000      1.00000000</v>
   <i type="logical" name="LCORR"> T  </i>
  </separator>
  <i type="logical" name="GGA_COMPAT"> T  </i>
  <i type="logical" name="LBERRY"> F  </i>
  <i type="int" name="ICORELEVEL">     0</i>
  <i type="logical" name="LDAU"> F  </i>
  <i type="int" name="I_CONSTRAINED_M">     0</i>
  <separator name="electronic exchange-correlation" >
   <i type="string" name="GGA">--</i>
   <i type="int" name="VOSKOWN">     0</i>
   <i type="logical" name="LHFCALC"> F  </i>
   <i type="string" name="PRECFOCK"></i>
   <i type="logical" name="LSYMGRAD"> F  </i>
   <i type="logical" name="LHFONE"> F  </i>
   <i type="logical" name="LRHFCALC"> F  </i>
   <i type="logical" name="LTHOMAS"> F  </i>
   <i type="logical" name="LMODELHF"> F  </i>
   <i name="ENCUT4O">     -1.00000000</i>
   <i type="int" name="EXXOEP">     0</i>
   <i type="int" name="FOURORBIT">     0</i>
   <i name="AEXX">      0.00000000</i>
   <i name="HFALPHA">      0.00000000</i>
   <i name="MCALPHA">      0.00000000</i>
   <i name="ALDAX">      1.00000000</i>
   <i name="AGGAX">      1.00000000</i>
   <i name="ALDAC">      1.00000000</i>
   <i name="AGGAC">      1.00000000</i>
   <i type="int" name="NKREDX">     1</i>
   <i type="int" name="NKREDY">     1</i>
   <i type="int" name="NKREDZ">     1</i>
   <i type="logical" name="SHIFTRED"> F  </i>
   <i type="logical" name="ODDONLY"> F  </i>
   <i type="logical" name="EVENONLY"> F  </i>
   <i type="int" name="LMAXFOCK">     0</i>
   <i type="int" name="NMAXFOCKAE">     0</i>
   <i type="logical" name="LFOCKAEDFT"> F  </i>
   <i name="HFSCREEN">      0.00000000</i>
   <i name="HFSCREENC">      0.00000000</i>
   <i type="int" name="NBANDSGWLOW">     0</i>
  </separator>
  <separator name="vdW DFT" >
   <i type="logical" name="LUSE_VDW"> F  </i>
   <i name="Zab_VDW">     -0.84910000</i>
   <i name="PARAM1">      0.12340000</i>
   <i name="PARAM2">      1.00000000</i>
   <i name="PARAM3">      0.00000000</i>
  </separator>
  <separator name="model GW" >
   <i type="int" name="MODEL_GW">     0</i>
   <i name="MODEL_EPS0">      9.23317003</i>
   <i name="MODEL_ALPHA">      1.00000000</i>
  </separator>
  <separator name="linear response parameters" >
   <i type="logical" name="LEPSILON"> F  </i>
   <i type="logical" name="LRPA"> F  </i>
   <i type="logical" name="LNABLA"> F  </i>
   <i type="logical" name="LVEL"> F  </i>
   <i type="int" name="KINTER">     0</i>
   <i name="CSHIFT">      0.10000000</i>
   <i name="OMEGAMAX">     -1.00000000</i>
   <i name="DEG_THRESHOLD">      0.00200000</i>
   <i name="RTIME">     -0.10000000</i>
   <i name="WPLASMAI">      0.00000000</i>
   <v name="DFIELD">      0.00000000      0.00000000      0.00000000</v>
   <v name="WPLASMA">      0.00000000      0.00000000      0.00000000      0.00000000      0.00000000      0.00000000      0.00000000      0.00000000      0.00000000</v>
  </separator>
  <separator name="orbital magnetization" >
   <i type="logical" name="NUCIND"> F  </i>
   <v name="MAGPOS">      0.00000000      0.00000000      0.00000000</v>
   <i type="logical" name="LNICSALL"> T  </i>
   <i type="logical" name="ORBITALMAG"> F  </i>
   <i type="logical" name="LMAGBLOCH"> F  </i>
   <i type="logical" name="LCHIMAG"> F  </i>
   <i type="logical" name="LGAUGE"> T  </i>
   <i type="int" name="MAGATOM">     0</i>
   <v name="MAGDIPOL">      0.00000000      0.00000000      0.00000000</v>
   <v name="AVECCONST">      0.00000000      0.00000000      0.00000000</v>
  </separator>
  <separator name="response functions" >
   <i type="logical" name="LADDER"> F  </i>
   <i type="logical" name="LRPAFORCE"> F  </i>
   <i type="logical" name="LFXC"> F  </i>
   <i type="logical" name="LHARTREE"> T  </i>
   <i type="int" name="IBSE">     0</i>
   <v type="int" name="KPOINT">    -1     0     0     0</v>
   <i type="logical" name="LTCTE"> F  </i>
   <i type="logical" name="LTETE"> F  </i>
   <i type="logical" name="LTRIPLET"> F  </i>
   <i type="logical" name="LFXCEPS"> F  </i>
   <i type="logical" name="LFXHEG"> F  </i>
   <i type="int" name="NATURALO">     2</i>
   <i type="logical" name="L2ORDER"> F  </i>
   <i type="logical" name="LMP2LT"> F  </i>
   <i type="logical" name="LUSEW"> F  </i>
   <i name="ENCUTGW">     -2.00000000</i>
   <i name="ENCUTGWSOFT">     -2.00000000</i>
   <i name="ENCUTLF">     -1.00000000</i>
   <i type="int" name="LMAXMP2">    -1</i>
   <i name="SCISSOR">      0.00000000</i>
   <i type="int" name="NOMEGA">     0</i>
   <i type="int" name="NOMEGAR">     0</i>
   <i type="int" name="NBANDSGW">    -1</i>
   <i type="int" name="NBANDSO">    -1</i>
   <i type="int" name="NBANDSV">    -1</i>
   <i type="int" name="NELM">   100</i>
   <i type="int" name="NELMHF">     1</i>
   <i type="int" name="DIM">     3</i>
   <i type="int" name="ANTIRES">     0</i>
   <i name="OMEGAMAX">    -30.00000000</i>
   <i name="OMEGAMIN">    -30.00000000</i>
   <i name="OMEGATL">   -200.00000000</i>
   <i type="int" name="OMEGAGRID">   140</i>
   <i name="CSHIFT">     -0.10000000</i>
   <i type="logical" name="SELFENERGY"> F  </i>
   <i type="logical" name="LSPECTRAL"> F  </i>
   <i type="logical" name="LSPECTRALGW"> F  </i>
   <i type="logical" name="LSINGLES"> F  </i>
   <i type="logical" name="LFERMIGW"> F  </i>
   <i type="logical" name="ODDONLYGW"> F  </i>
   <i type="logical" name="EVENONLYGW"> F  </i>
   <i type="int" name="NKREDLFX">     1</i>
   <i type="int" name="NKREDLFY">     1</i>
   <i type="int" name="NKREDLFZ">     1</i>
   <i type="int" name="MAXMEM">  2800</i>
   <i type="int" name="TELESCOPE">     0</i>
   <i type="int" name="TAUPAR">     1</i>
   <i type="int" name="OMEGAPAR">    -1</i>
   <i name="LAMBDA">      1.00000000</i>
  </separator>
  <separator name="External order field" >
   <i name="OFIELD_KAPPA">      0.00000000</i>
   <v name="OFIELD_K">      0.00000000      0.00000000      0.00000000</v>
   <i name="OFIELD_Q6_NEAR">      0.00000000</i>
   <i name="OFIELD_Q6_FAR">      0.00000000</i>
   <i name="OFIELD_A">      0.00000000</i>
  </separator>
 </parameters>
 <atominfo>
  <atoms>       6 </atoms>
  <types>       3 </types>
  <array name="atoms" >
   <dimension dim="1">ion</dimension>
   <field type="string">element</field>
   <field type="int">atomtype</field>
   <set>
    <rc><c>Ca</c><c>   1</c></rc>
    <rc><c>Ca</c><c>   1</c></rc>
    <rc><c>Fe</c><c>   2</c></rc>
    <rc><c>Fe</c><c>   2</c></rc>
    <rc><c>B </c><c>   3</c></rc>
    <rc><c>B </c><c>   3</c></rc>
   </set>
  </array>
  <array name="atomtypes" >
   <dimension dim="1">type</dimension>
   <field type="int">atomspertype</field>
   <field type="string">element</field>
   <field>mass</field>
   <field>valence</field>
   <field type="string">pseudopotential</field>
   <set>
    <rc><c>   2</c><c>Ca</c><c>     40.07800000</c><c>     10.00000000</c><c>  PAW_PBE Ca_sv 06Sep2000               </c></rc>
    <rc><c>   2</c><c>Fe</c><c>     55.84700000</c><c>      8.00000000</c><c>  PAW_PBE Fe 06Sep2000                  </c></rc>
    <rc><c>   2</c><c>B </c><c>     10.81100000</c><c>      3.00000000</c><c>  PAW_PBE B 06Sep2000                   </c></rc>
   </set>
  </array>
 </atominfo>
 <structure name="initialpos" >
  <crystal>
   <varray name="basis" >
    <v>       3.54292000       0.00000000       0.00000000 </v>
    <v>       0.00000000       3.54292000       0.00000000 </v>
    <v>       0.00000000       0.00000000       7.35577000 </v>
   </varray>
   <i name="volume">     92.33170030 </i>
   <varray name="rec_basis" >
    <v>       0.28225306       0.00000000       0.00000000 </v>
    <v>       0.00000000       0.28225306       0.00000000 </v>
    <v>       0.00000000       0.00000000       0.13594770 </v>
   </varray>
  </crystal>
  <varray name="positions" >
   <v>       0.50000000       0.50000000       0.51283000 </v>
   <v>       0.50000000       0.50000000       0.01283000 </v>
   <v>       0.00000000       0.00000000       0.75219000 </v>
   <v>       0.00000000       0.00000000       0.25219000 </v>
   <v>       0.00000000       0.00000000       0.01386000 </v>
   <v>       0.00000000       0.00000000       0.51386000 </v>
  </varray>
 </structure>
 <calculation>
  <scstep>
   <time name="dav">    0.49    0.49</time>
   <time name="total">    0.51    0.54</time>
   <energy>
    <i name="alphaZ">    214.95268659 </i>
    <i name="ewald">  -2647.29145885 </i>
    <i name="hartreedc">   -759.54939989 </i>
    <i name="XCdc">    106.23839729 </i>
    <i name="pawpsdc">   2688.88846108 </i>
    <i name="pawaedc">  -2682.54350385 </i>
    <i name="eentropy">     -0.00048405 </i>
    <i name="bandstr">     77.96749938 </i>
    <i name="atom">   3343.11979913 </i>
    <i name="e_fr_energy">    341.78199681 </i>
    <i name="e_wo_entrp">    341.78248086 </i>
    <i name="e_0_energy">    341.78223883 </i>
   </energy>
  </scstep>
  <scstep>
   <time name="dav">    0.48    0.51</time>
   <time name="total">    0.48    0.48</time>
   <energy>
    <i name="e_fr_energy">     -3.63889709 </i>
    <i name="e_wo_entrp">     -3.63842468 </i>
    <i name="e_0_energy">     -3.63866088 </i>
   </energy>
  </scstep>
  <scstep>
   <time name="dav">    0.77    0.78</time>
   <time name="total">    0.78    0.78</time>
   <energy>
    <i name="e_fr_energy">    -41.58233060 </i>
    <i name="e_wo_entrp">    -41.58221036 </i>
    <i name="e_0_energy">    -41.58227048 </i>
   </energy>
  </scstep>
  <scstep>
   <time name="dav">    0.61    0.61</time>
   <time name="total">    0.61    0.61</time>
   <energy>
    <i name="e_fr_energy">    -43.70774854 </i>
    <i name="e_wo_entrp">    -43.70738870 </i>
    <i name="e_0_energy">    -43.70756862 </i>
   </energy>
  </scstep>
  <scstep>
   <time name="dav">    0.72    0.72</time>
   <time name="total">    0.75    0.75</time>
   <energy>
    <i name="e_fr_energy">    -43.82972595 </i>
    <i name="e_wo_entrp">    -43.82947369 </i>
    <i name="e_0_energy">    -43.82959982 </i>
   </energy>
  </scstep>
  <scstep>
   <time name="dav">    0.60    0.60</time>
   <time name="total">    0.64    0.64</time>
   <energy>
    <i name="e_fr_energy">   -108.12835765 </i>
    <i name="e_wo_entrp">   -108.12824045 </i>
    <i name="e_0_energy">   -108.12829905 </i>
   </energy>
  </scstep>
  <scstep>
   <time name="dav">    0.54    0.54</time>
   <time name="total">    0.58    0.58</time>
   <energy>
    <i name="e_fr_energy">    -46.23205750 </i>
    <i name="e_wo_entrp">    -46.23195183 </i>
    <i name="e_0_energy">    -46.23200467 </i>
   </energy>
  </scstep>
  <scstep>
   <time name="dav">    0.66    0.66</time>
   <time name="total">    0.69    0.69</time>
   <energy>
    <i name="e_fr_energy">    -29.53470781 </i>
    <i name="e_wo_entrp">    -29.53437372 </i>
    <i name="e_0_energy">    -29.53454077 </i>
   </energy>
  </scstep>
  <scstep>
   <time name="dav">    0.62    0.62</time>
   <time name="total">    0.65    0.65</time>
   <energy>
    <i name="e_fr_energy">    -29.71804997 </i>
    <i name="e_wo_entrp">    -29.71698121 </i>
    <i name="e_0_energy">    -29.71751559 </i>
   </energy>
  </scstep>
  <scstep>
   <time name="dav">    0.68    0.68</time>
   <time name="total">    0.71    0.71</time>
   <energy>
    <i name="e_fr_energy">    -29.66747101 </i>
    <i name="e_wo_entrp">    -29.66658902 </i>
    <i name="e_0_energy">    -29.66703001 </i>
   </energy>
  </scstep>
  <scstep>
   <time name="dav">    0.64    0.64</time>
   <time name="total">    0.68    0.68</time>
   <energy>
    <i name="e_fr_energy">    -29.65928131 </i>
    <i name="e_wo_entrp">    -29.65823595 </i>
    <i name="e_0_energy">    -29.65875863 </i>
   </energy>
  </scstep>
  <scstep>
   <time name="dav">    0.63    0.63</time>
   <time name="total">    0.67    0.67</time>
   <energy>
    <i name="e_fr_energy">    -29.64442172 </i>
    <i name="e_wo_entrp">    -29.64371685 </i>
    <i name="e_0_energy">    -29.64406929 </i>
   </energy>
  </scstep>
  <scstep>
   <time name="dav">    0.58    0.58</time>
   <time name="total">    0.62    0.62</time>
   <energy>
    <i name="e_fr_energy">    -29.64351914 </i>
    <i name="e_wo_entrp">    -29.64257419 </i>
    <i name="e_0_energy">    -29.64304667 </i>
   </energy>
  </scstep>
  <scstep>
   <time name="dav">    0.62    0.62</time>
   <time name="total">    0.66    0.66</time>
   <energy>
    <i name="e_fr_energy">    -29.63962497 </i>
    <i name="e_wo_entrp">    -29.63890621 </i>
    <i name="e_0_energy">    -29.63926559 </i>
   </energy>
  </scstep>
  <scstep>
   <time name="dav">    0.62    0.62</time>
   <time name="total">    0.66    0.66</time>
   <energy>
    <i name="e_fr_energy">    -29.63878004 </i>
    <i name="e_wo_entrp">    -29.63763011 </i>
    <i name="e_0_energy">    -29.63820507 </i>
   </energy>
  </scstep>
  <scstep>
   <time name="dav">    0.63    0.63</time>
   <time name="total">    0.67    0.67</time>
   <energy>
    <i name="e_fr_energy">    -29.63834440 </i>
    <i name="e_wo_entrp">    -29.63720887 </i>
    <i name="e_0_energy">    -29.63777664 </i>
   </energy>
  </scstep>
  <scstep>
   <time name="dav">    0.65    0.65</time>
   <time name="total">    0.69    0.69</time>
   <energy>
    <i name="e_fr_energy">    -29.63826579 </i>
    <i name="e_wo_entrp">    -29.63714520 </i>
    <i name="e_0_energy">    -29.63770550 </i>
   </energy>
  </scstep>
  <scstep>
   <time name="dav">    0.52    0.52</time>
   <time name="total">    0.55    0.55</time>
   <energy>
    <i name="e_fr_energy">    -29.63824112 </i>
    <i name="e_wo_entrp">    -29.63713872 </i>
    <i name="e_0_energy">    -29.63768992 </i>
   </energy>
  </scstep>
  <scstep>
   <time name="dav">    0.47    0.47</time>
   <time name="total">    0.50    0.50</time>
   <energy>
    <i name="e_fr_energy">    -29.63822662 </i>
    <i name="e_wo_entrp">    -29.63717523 </i>
    <i name="e_0_energy">    -29.63770092 </i>
   </energy>
  </scstep>
  <scstep>
   <time name="dav">    0.36    0.36</time>
   <time name="total">    0.37    0.37</time>
   <energy>
    <i name="alphaZ">    214.95268659 </i>
    <i name="ewald">  -2647.29145885 </i>
    <i name="hartreedc">   -726.20130291 </i>
    <i name="XCdc">    105.18729291 </i>
    <i name="pawpsdc">   3230.46664367 </i>
    <i name="pawaedc">  -3240.26232335 </i>
    <i name="eentropy">     -0.00104921 </i>
    <i name="bandstr">   -309.60851488 </i>
    <i name="atom">   3343.11979913 </i>
    <i name="e_fr_energy">    -29.63822692 </i>
    <i name="e_wo_entrp">    -29.63717771 </i>
    <i name="e_0_energy">    -29.63770231 </i>
   </energy>
  </scstep>
  <structure>
   <crystal>
    <varray name="basis" >
     <v>       3.54292000       0.00000000       0.00000000 </v>
     <v>       0.00000000       3.54292000       0.00000000 </v>
     <v>       0.00000000       0.00000000       7.35577000 </v>
    </varray>
    <i name="volume">     92.33170030 </i>
    <varray name="rec_basis" >
     <v>       0.28225306       0.00000000       0.00000000 </v>
     <v>       0.00000000       0.28225306       0.00000000 </v>
     <v>       0.00000000       0.00000000       0.13594770 </v>
    </varray>
   </crystal>
   <varray name="positions" >
    <v>       0.50000000       0.50000000       0.51283000 </v>
    <v>       0.50000000       0.50000000       0.01283000 </v>
    <v>       0.00000000       0.00000000       0.75219000 </v>
    <v>       0.00000000       0.00000000       0.25219000 </v>
    <v>       0.00000000       0.00000000       0.01386000 </v>
    <v>       0.00000000       0.00000000       0.51386000 </v>
   </varray>
  </structure>
  <varray name="forces" >
   <v>       0.00000000       0.00000000      -0.08576642 </v>
   <v>       0.00000000      -0.00000000      -0.08576642 </v>
   <v>      -0.00000000      -0.00000000       1.26894640 </v>
   <v>      -0.00000000      -0.00000000       1.26894640 </v>
   <v>      -0.00000000      -0.00000000      -1.18317999 </v>
   <v>      -0.00000000      -0.00000000      -1.18317999 </v>
  </varray>
  <varray name="stress" >
   <v>     101.73716847       0.00000000       0.00000000 </v>
   <v>       0.00000000     101.73716847       0.00000000 </v>
   <v>       0.00000000      -0.00000000     184.43582917 </v>
  </varray>
  <energy>
   <i name="e_fr_energy">    -29.63822692 </i>
   <i name="e_wo_entrp">    -29.63770231 </i>
   <i name="e_0_energy">     -0.00104921 </i>
  </energy>
  <time name="totalsc">   12.81   12.85</time>
 </calculation>
 <calculation>
  <scstep>
   <time name="dav">    0.53    0.53</time>
   <time name="total">    0.56    0.56</time>
   <energy>
    <i name="alphaZ">    207.41096370 </i>
    <i name="ewald">  -2617.97354659 </i>
    <i name="hartreedc">   -716.73965187 </i>
    <i name="XCdc">    103.41350737 </i>
    <i name="pawpsdc">   3230.38424806 </i>
    <i name="pawaedc">  -3240.17914082 </i>
    <i name="eentropy">     -0.00031615 </i>
    <i name="bandstr">   -340.13427016 </i>
    <i name="atom">   3343.11979913 </i>
    <i name="e_fr_energy">    -30.69840733 </i>
    <i name="e_wo_entrp">    -30.69809118 </i>
    <i name="e_0_energy">    -30.69824926 </i>
   </energy>
  </scstep>
  <scstep>
   <time name="dav">    0.67    0.67</time>
   <time name="total">    0.71    0.71</time>
   <energy>
    <i name="e_fr_energy">    -41.81291574 </i>
    <i name="e_wo_entrp">    -41.81214851 </i>
    <i name="e_0_energy">    -41.81253212 </i>
   </energy>
  </scstep>
  <scstep>
   <time name="dav">    0.62    0.62</time>
   <time name="total">    0.66    0.66</time>
   <energy>
    <i name="e_fr_energy">    -29.93121165 </i>
    <i name="e_wo_entrp">    -29.93038354 </i>
    <i name="e_0_energy">    -29.93079759 </i>
   </energy>
  </scstep>
  <scstep>
   <time name="dav">    0.55    0.55</time>
   <time name="total">    0.58    0.58</time>
   <energy>
    <i name="e_fr_energy">    -29.94696039 </i>
    <i name="e_wo_entrp">    -29.94641072 </i>
    <i name="e_0_energy">    -29.94668556 </i>
   </energy>
  </scstep>
  <scstep>
   <time name="dav">    0.74    0.74</time>
   <time name="total">    0.77    0.79</time>
   <energy>
    <i name="e_fr_energy">    -29.92543461 </i>
    <i name="e_wo_entrp">    -29.92472298 </i>
    <i name="e_0_energy">    -29.92507880 </i>
   </energy>
  </scstep>
  <scstep>
   <time name="dav">    0.71    0.71</time>
   <time name="total">    0.75    0.75</time>
   <energy>
    <i name="e_fr_energy">    -29.91885608 </i>
    <i name="e_wo_entrp">    -29.91780390 </i>
    <i name="e_0_energy">    -29.91832999 </i>
   </energy>
  </scstep>
  <scstep>
   <time name="dav">    0.61    0.61</time>
   <time name="total">    0.65    0.65</time>
   <energy>
    <i name="e_fr_energy">    -29.91892606 </i>
    <i name="e_wo_entrp">    -29.91825069 </i>
    <i name="e_0_energy">    -29.91858837 </i>
   </energy>
  </scstep>
  <scstep>
   <time name="dav">    0.76    0.76</time>
   <time name="total">    0.79    0.79</time>
   <energy>
    <i name="e_fr_energy">    -29.91934604 </i>
    <i name="e_wo_entrp">    -29.91848757 </i>
    <i name="e_0_energy">    -29.91891681 </i>
   </energy>
  </scstep>
  <scstep>
   <time name="dav">    0.64    0.64</time>
   <time name="total">    0.67    0.67</time>
   <energy>
    <i name="e_fr_energy">    -29.91934168 </i>
    <i name="e_wo_entrp">    -29.91863458 </i>
    <i name="e_0_energy">    -29.91898813 </i>
   </energy>
  </scstep>
  <scstep>
   <time name="dav">    0.52    0.52</time>
   <time name="total">    0.56    0.56</time>
   <energy>
    <i name="e_fr_energy">    -29.91932484 </i>
    <i name="e_wo_entrp">    -29.91854292 </i>
    <i name="e_0_energy">    -29.91893388 </i>
   </energy>
  </scstep>
  <scstep>
   <time name="dav">    0.36    0.36</time>
   <time name="total">    0.37    0.37</time>
   <energy>
    <i name="alphaZ">    207.41096370 </i>
    <i name="ewald">  -2617.97354659 </i>
    <i name="hartreedc">   -738.63111599 </i>
    <i name="XCdc">    104.65395933 </i>
    <i name="pawpsdc">   3170.07168579 </i>
    <i name="pawaedc">  -3179.91486861 </i>
    <i name="eentropy">     -0.00076148 </i>
    <i name="bandstr">   -318.65543896 </i>
    <i name="atom">   3343.11979913 </i>
    <i name="e_fr_energy">    -29.91932368 </i>
    <i name="e_wo_entrp">    -29.91856220 </i>
    <i name="e_0_energy">    -29.91894294 </i>
   </energy>
  </scstep>
  <structure>
   <crystal>
    <varray name="basis" >
     <v>       3.57632344       0.00000000       0.00000000 </v>
     <v>       0.00000000       3.57632344       0.00000000 </v>
     <v>       0.00000000      -0.00000000       7.48149557 </v>
    </varray>
    <i name="volume">     95.68899677 </i>
    <varray name="rec_basis" >
     <v>       0.27961677       0.00000000       0.00000000 </v>
     <v>       0.00000000       0.27961677       0.00000000 </v>
     <v>       0.00000000      -0.00000000       0.13366311 </v>
    </varray>
   </crystal>
   <varray name="positions" >
    <v>       0.50000000       0.50000000       0.51271750 </v>
    <v>       0.50000000       0.50000000       0.01271750 </v>
    <v>      -0.00000000      -0.00000000       0.75385447 </v>
    <v>      -0.00000000      -0.00000000       0.25385447 </v>
    <v>      -0.00000000      -0.00000000       0.01230803 </v>
    <v>      -0.00000000      -0.00000000       0.51230803 </v>
   </varray>
  </structure>
  <varray name="forces" >
   <v>       0.00000000       0.00000000      -0.06092845 </v>
   <v>      -0.00000000       0.00000000      -0.06092845 </v>
   <v>      -0.00000000      -0.00000000       0.71777473 </v>
   <v>      -0.00000000      -0.00000000       0.71777473 </v>
   <v>      -0.00000000       0.00000000      -0.65684628 </v>
   <v>      -0.00000000       0.00000000      -0.65684628 </v>
  </varray>
  <varray name="stress" >
   <v>      71.48956189       0.00000000       0.00000000 </v>
   <v>       0.00000000      71.48956189      -0.00000000 </v>
   <v>       0.00000000       0.00000000     102.11239493 </v>
  </varray>
  <energy>
   <i name="e_fr_energy">    -29.91932368 </i>
   <i name="e_wo_entrp">    -29.91894294 </i>
   <i name="e_0_energy">     -0.00076148 </i>
  </energy>
  <time name="totalsc">    7.43    7.44</time>
 </calculation>
 <calculation>
  <scstep>
   <time name="dav">    0.54    0.54</time>
   <time name="total">    0.57    0.57</time>
   <energy>
    <i name="alphaZ">    195.82382510 </i>
    <i name="ewald">  -2570.07510467 </i>
    <i name="hartreedc">   -723.78597859 </i>
    <i name="XCdc">    101.82279382 </i>
    <i name="pawpsdc">   3170.03122409 </i>
    <i name="pawaedc">  -3179.88106655 </i>
    <i name="eentropy">     -0.00008815 </i>
    <i name="bandstr">   -369.37247861 </i>
    <i name="atom">   3343.11979913 </i>
    <i name="e_fr_energy">    -32.31707444 </i>
    <i name="e_wo_entrp">    -32.31698628 </i>
    <i name="e_0_energy">    -32.31703036 </i>
   </energy>
  </scstep>
  <scstep>
   <time name="dav">    0.70    0.70</time>
   <time name="total">    0.73    0.75</time>
   <energy>
    <i name="e_fr_energy">    -59.39728586 </i>
    <i name="e_wo_entrp">    -59.39697504 </i>
    <i name="e_0_energy">    -59.39713045 </i>
   </energy>
  </scstep>
  <scstep>
   <time name="dav">    0.62    0.62</time>
   <time name="total">    0.66    0.66</time>
   <energy>
    <i name="e_fr_energy">    -30.10774742 </i>
    <i name="e_wo_entrp">    -30.10742717 </i>
    <i name="e_0_energy">    -30.10758730 </i>
   </energy>
  </scstep>
  <scstep>
   <time name="dav">    0.58    0.58</time>
   <time name="total">    0.61    0.61</time>
   <energy>
    <i name="e_fr_energy">    -30.12982930 </i>
    <i name="e_wo_entrp">    -30.12917095 </i>
    <i name="e_0_energy">    -30.12950012 </i>
   </energy>
  </scstep>
  <scstep>
   <time name="dav">    0.73    0.73</time>
   <time name="total">    0.76    0.76</time>
   <energy>
    <i name="e_fr_energy">    -30.09924087 </i>
    <i name="e_wo_entrp">    -30.09866932 </i>
    <i name="e_0_energy">    -30.09895510 </i>
   </energy>
  </scstep>
  <scstep>
   <time name="dav">    0.63    0.63</time>
   <time name="total">    0.67    0.67</time>
   <energy>
    <i name="e_fr_energy">    -30.10669881 </i>
    <i name="e_wo_entrp">    -30.10586358 </i>
    <i name="e_0_energy">    -30.10628120 </i>
   </energy>
  </scstep>
  <scstep>
   <time name="dav">    0.68    0.68</time>
   <time name="total">    0.72    0.72</time>
   <energy>
    <i name="e_fr_energy">    -30.10845099 </i>
    <i name="e_wo_entrp">    -30.10767361 </i>
    <i name="e_0_energy">    -30.10806230 </i>
   </energy>
  </scstep>
  <scstep>
   <time name="dav">    0.73    0.73</time>
   <time name="total">    0.77    0.77</time>
   <energy>
    <i name="e_fr_energy">    -30.10876208 </i>
    <i name="e_wo_entrp">    -30.10792625 </i>
    <i name="e_0_energy">    -30.10834417 </i>
   </energy>
  </scstep>
  <scstep>
   <time name="dav">    0.57    0.57</time>
   <time name="total">    0.60    0.60</time>
   <energy>
    <i name="e_fr_energy">    -30.11025405 </i>
    <i name="e_wo_entrp">    -30.10926054 </i>
    <i name="e_0_energy">    -30.10975730 </i>
   </energy>
  </scstep>
  <scstep>
   <time name="dav">    0.55    0.55</time>
   <time name="total">    0.59    0.59</time>
   <energy>
    <i name="e_fr_energy">    -30.11306129 </i>
    <i name="e_wo_entrp">    -30.11210313 </i>
    <i name="e_0_energy">    -30.11258221 </i>
   </energy>
  </scstep>
  <scstep>
   <time name="dav">    0.36    0.36</time>
   <time name="total">    0.40    0.40</time>
   <energy>
    <i name="e_fr_energy">    -30.11321932 </i>
    <i name="e_wo_entrp">    -30.11226509 </i>
    <i name="e_0_energy">    -30.11274221 </i>
   </energy>
  </scstep>
  <scstep>
