<?xml version="1.0" encoding="ISO-8859-1"?>
<modeling>
 <generator>
  <i name="program" type="string">vasp </i>
  <i name="version" type="string">5.4.4.18Apr17-6-g9f103f2a35  </i>
  <i name="subversion" type="string">(build Apr 24 2023 09:55:28) complex            parallel </i>
  <i name="platform" type="string">LinuxIFC </i>
  <i name="date" type="string">2024 04 04 </i>
  <i name="time" type="string">10:38:54 </i>
 </generator>
 <incar>
  <i type="string" name="SYSTEM"> DFT routine</i>
  <i type="int" name="ISTART">     0</i>
  <i type="string" name="PREC">acc</i>
  <i type="int" name="IALGO">    38</i>
  <i type="int" name="ICHARG">     2</i>
  <i type="int" name="NELM">   100</i>
  <i type="int" name="IBRION">     1</i>
  <i name="EDIFF">      0.00001000</i>
  <i name="EDIFFG">      0.00010000</i>
  <i type="int" name="NSW">    10</i>
  <i type="int" name="ISIF">     3</i>
  <i name="ENCUT">    400.00000000</i>
  <i name="POTIM">      0.10000000</i>
  <i type="logical" name="LREAL"> F  </i>
  <i type="int" name="ISMEAR">     0</i>
  <i name="SIGMA">      0.01000000</i>
  <i type="logical" name="LWAVE"> F  </i>
  <i type="logical" name="LCHARG"> F  </i>
  <i type="int" name="LORBIT">    10</i>
  <i type="logical" name="LELF"> F  </i>
  <v type="int" name="KPOINT_BSE">    -1     0     0     0</v>
  <i type="int" name="NELM">   100</i>
 </incar>
 <structure name="primitive_cell" >
  <crystal>
   <varray name="basis" >
    <v>       3.41601000       0.00000000       0.00000000 </v>
    <v>       0.00000000       7.36659000       0.00000000 </v>
    <v>       0.00000000       0.00000000       7.28382000 </v>
   </varray>
   <i name="volume">    183.29256017 </i>
   <varray name="rec_basis" >
    <v>       0.29273919       0.00000000       0.00000000 </v>
    <v>       0.00000000       0.13574802       0.00000000 </v>
    <v>       0.00000000       0.00000000       0.13729060 </v>
   </varray>
  </crystal>
  <varray name="positions" >
   <v>      -0.00267000       0.00116000      -0.25000000 </v>
   <v>      -0.48075000      -0.24718000      -0.25000000 </v>
   <v>       0.48075000       0.25282000      -0.25000000 </v>
   <v>       0.49646000       0.25000000      -0.50000000 </v>
   <v>       0.49646000       0.25000000       0.00000000 </v>
   <v>      -0.49646000      -0.25000000      -0.50000000 </v>
   <v>      -0.49646000      -0.25000000       0.00000000 </v>
   <v>       0.00267000      -0.00116000       0.25000000 </v>
   <v>       0.00267000      -0.49884000      -0.25000000 </v>
   <v>       0.48075000       0.24718000       0.25000000 </v>
   <v>      -0.48075000      -0.25282000       0.25000000 </v>
   <v>      -0.00267000       0.49884000       0.25000000 </v>
  </varray>
 </structure>
 <varray name="primitive_index" >
  <v type="int" >        1 </v>
  <v type="int" >        9 </v>
  <v type="int" >       12 </v>
  <v type="int" >        6 </v>
  <v type="int" >        7 </v>
  <v type="int" >        5 </v>
  <v type="int" >        8 </v>
  <v type="int" >        2 </v>
  <v type="int" >        4 </v>
  <v type="int" >       10 </v>
  <v type="int" >       11 </v>
  <v type="int" >        3 </v>
 </varray>
 <kpoints>
  <generation param="Auto">
   <i name="subdivisionlength">     30.00000000 </i>
   <v type="int" name="divisions">       9        4        4 </v>
   <v name="usershift">      0.00000000       0.00000000       0.00000000 </v>
   <v name="genvec1">      0.11111111       0.00000000       0.00000000 </v>
   <v name="genvec2">      0.00000000       0.25000000       0.00000000 </v>
   <v name="genvec3">      0.00000000       0.00000000       0.25000000 </v>
   <v name="shift">      0.00000000       0.00000000       0.00000000 </v>
  </generation>
  <varray name="kpointlist" >
   <v>       0.00000000       0.00000000       0.00000000 </v>
   <v>       0.11111111       0.00000000       0.00000000 </v>
   <v>       0.22222222       0.00000000       0.00000000 </v>
   <v>       0.33333333       0.00000000       0.00000000 </v>
   <v>       0.44444444       0.00000000       0.00000000 </v>
   <v>       0.00000000       0.25000000       0.00000000 </v>
   <v>       0.11111111       0.25000000       0.00000000 </v>
   <v>       0.22222222       0.25000000       0.00000000 </v>
   <v>       0.33333333       0.25000000       0.00000000 </v>
   <v>       0.44444444       0.25000000       0.00000000 </v>
   <v>       0.00000000       0.50000000       0.00000000 </v>
   <v>       0.11111111       0.50000000       0.00000000 </v>
   <v>       0.22222222       0.50000000       0.00000000 </v>
   <v>       0.33333333       0.50000000       0.00000000 </v>
   <v>       0.44444444       0.50000000       0.00000000 </v>
   <v>       0.00000000       0.00000000       0.25000000 </v>
   <v>       0.11111111       0.00000000       0.25000000 </v>
   <v>       0.22222222       0.00000000       0.25000000 </v>
   <v>       0.33333333       0.00000000       0.25000000 </v>
   <v>       0.44444444       0.00000000       0.25000000 </v>
   <v>       0.00000000       0.25000000       0.25000000 </v>
   <v>       0.11111111       0.25000000       0.25000000 </v>
   <v>       0.22222222       0.25000000       0.25000000 </v>
   <v>       0.33333333       0.25000000       0.25000000 </v>
   <v>       0.44444444       0.25000000       0.25000000 </v>
   <v>       0.00000000       0.50000000       0.25000000 </v>
   <v>       0.11111111       0.50000000       0.25000000 </v>
   <v>       0.22222222       0.50000000       0.25000000 </v>
   <v>       0.33333333       0.50000000       0.25000000 </v>
   <v>       0.44444444       0.50000000       0.25000000 </v>
   <v>       0.00000000       0.00000000       0.50000000 </v>
   <v>       0.11111111       0.00000000       0.50000000 </v>
   <v>       0.22222222       0.00000000       0.50000000 </v>
   <v>       0.33333333       0.00000000       0.50000000 </v>
   <v>       0.44444444       0.00000000       0.50000000 </v>
   <v>       0.00000000       0.25000000       0.50000000 </v>
   <v>       0.11111111       0.25000000       0.50000000 </v>
   <v>       0.22222222       0.25000000       0.50000000 </v>
   <v>       0.33333333       0.25000000       0.50000000 </v>
   <v>       0.44444444       0.25000000       0.50000000 </v>
   <v>       0.00000000       0.50000000       0.50000000 </v>
   <v>       0.11111111       0.50000000       0.50000000 </v>
   <v>       0.22222222       0.50000000       0.50000000 </v>
   <v>       0.33333333       0.50000000       0.50000000 </v>
   <v>       0.44444444       0.50000000       0.50000000 </v>
  </varray>
  <varray name="weights" >
   <v>       0.00694444 </v>
   <v>       0.01388889 </v>
   <v>       0.01388889 </v>
   <v>       0.01388889 </v>
   <v>       0.01388889 </v>
   <v>       0.01388889 </v>
   <v>       0.02777778 </v>
   <v>       0.02777778 </v>
   <v>       0.02777778 </v>
   <v>       0.02777778 </v>
   <v>       0.00694444 </v>
   <v>       0.01388889 </v>
   <v>       0.01388889 </v>
   <v>       0.01388889 </v>
   <v>       0.01388889 </v>
   <v>       0.01388889 </v>
   <v>       0.02777778 </v>
   <v>       0.02777778 </v>
   <v>       0.02777778 </v>
   <v>       0.02777778 </v>
   <v>       0.02777778 </v>
   <v>       0.05555556 </v>
   <v>       0.05555556 </v>
   <v>       0.05555556 </v>
   <v>       0.05555556 </v>
   <v>       0.01388889 </v>
   <v>       0.02777778 </v>
   <v>       0.02777778 </v>
   <v>       0.02777778 </v>
   <v>       0.02777778 </v>
   <v>       0.00694444 </v>
   <v>       0.01388889 </v>
   <v>       0.01388889 </v>
   <v>       0.01388889 </v>
   <v>       0.01388889 </v>
   <v>       0.01388889 </v>
   <v>       0.02777778 </v>
   <v>       0.02777778 </v>
   <v>       0.02777778 </v>
   <v>       0.02777778 </v>
   <v>       0.00694444 </v>
   <v>       0.01388889 </v>
   <v>       0.01388889 </v>
   <v>       0.01388889 </v>
   <v>       0.01388889 </v>
  </varray>
 </kpoints>
 <parameters>
  <separator name="general" >
   <i type="string" name="SYSTEM">DFT routine</i>
   <i type="logical" name="LCOMPAT"> F  </i>
  </separator>
  <separator name="electronic" >
   <i type="string" name="PREC">acc</i>
   <i name="ENMAX">    400.00000000</i>
   <i name="ENAUG">    535.51400000</i>
   <i name="EDIFF">      0.00001000</i>
   <i type="int" name="IALGO">    38</i>
   <i type="int" name="IWAVPR">    11</i>
   <i type="int" name="NBANDS">    50</i>
   <i name="NELECT">     84.00000000</i>
   <i type="int" name="TURBO">     0</i>
   <i type="int" name="IRESTART">     0</i>
   <i type="int" name="NREBOOT">     0</i>
   <i type="int" name="NMIN">     0</i>
   <i name="EREF">      0.00000000</i>
   <separator name="electronic smearing" >
    <i type="int" name="ISMEAR">     0</i>
    <i name="SIGMA">      0.01000000</i>
    <i name="KSPACING">      0.50000000</i>
    <i type="logical" name="KGAMMA"> T  </i>
   </separator>
   <separator name="electronic projectors" >
    <i type="logical" name="LREAL"> F  </i>
    <v name="ROPT">      0.00000000      0.00000000      0.00000000</v>
    <i type="int" name="LMAXPAW">  -100</i>
    <i type="int" name="LMAXMIX">     2</i>
    <i type="logical" name="NLSPLINE"> F  </i>
   </separator>
   <separator name="electronic startup" >
    <i type="int" name="ISTART">     0</i>
    <i type="int" name="ICHARG">     2</i>
    <i type="int" name="INIWAV">     1</i>
   </separator>
   <separator name="electronic spin" >
    <i type="int" name="ISPIN">     1</i>
    <i type="logical" name="LNONCOLLINEAR"> F  </i>
    <v name="MAGMOM">      1.00000000      1.00000000      1.00000000      1.00000000      1.00000000      1.00000000      1.00000000      1.00000000      1.00000000      1.00000000      1.00000000      1.00000000</v>
    <i name="NUPDOWN">     -1.00000000</i>
    <i type="logical" name="LSORBIT"> F  </i>
    <v name="SAXIS">      0.00000000      0.00000000      1.00000000</v>
    <i type="logical" name="LSPIRAL"> F  </i>
    <v name="QSPIRAL">      0.00000000      0.00000000      0.00000000</v>
    <i type="logical" name="LZEROZ"> F  </i>
   </separator>
   <separator name="electronic exchange-correlation" >
    <i type="logical" name="LASPH"> F  </i>
    <i type="logical" name="LMETAGGA"> F  </i>
   </separator>
   <separator name="electronic convergence" >
    <i type="int" name="NELM">   100</i>
    <i type="int" name="NELMDL">    -5</i>
    <i type="int" name="NELMIN">     2</i>
    <i name="ENINI">    400.00000000</i>
    <separator name="electronic convergence detail" >
     <i type="logical" name="LDIAG"> T  </i>
     <i type="logical" name="LSUBROT"> F  </i>
     <i name="WEIMIN">      0.00100000</i>
     <i name="EBREAK">      0.00000005</i>
     <i name="DEPER">      0.30000000</i>
     <i type="int" name="NRMM">     4</i>
     <i name="TIME">      0.40000000</i>
    </separator>
   </separator>
   <separator name="electronic mixer" >
    <i name="AMIX">      0.40000000</i>
    <i name="BMIX">      1.00000000</i>
    <i name="AMIN">      0.10000000</i>
    <i name="AMIX_MAG">      1.60000000</i>
    <i name="BMIX_MAG">      1.00000000</i>
    <separator name="electronic mixer details" >
     <i type="int" name="IMIX">     4</i>
     <i type="logical" name="MIXFIRST"> F  </i>
     <i type="int" name="MAXMIX">   -45</i>
     <i name="WC">    100.00000000</i>
     <i type="int" name="INIMIX">     1</i>
     <i type="int" name="MIXPRE">     1</i>
     <i type="int" name="MREMOVE">     5</i>
    </separator>
   </separator>
   <separator name="electronic dipolcorrection" >
    <i type="logical" name="LDIPOL"> F  </i>
    <i type="logical" name="LMONO"> F  </i>
    <i type="int" name="IDIPOL">     0</i>
    <i name="EPSILON">      1.00000000</i>
    <v name="DIPOL">   -100.00000000   -100.00000000   -100.00000000</v>
    <i name="EFIELD">      0.00000000</i>
   </separator>
  </separator>
  <separator name="grids" >
   <i type="int" name="NGX">    24</i>
   <i type="int" name="NGY">    48</i>
   <i type="int" name="NGZ">    48</i>
   <i type="int" name="NGXF">    48</i>
   <i type="int" name="NGYF">    96</i>
   <i type="int" name="NGZF">    96</i>
   <i type="logical" name="ADDGRID"> F  </i>
  </separator>
  <separator name="ionic" >
   <i type="int" name="NSW">    10</i>
   <i type="int" name="IBRION">     1</i>
   <i type="int" name="MDALGO">     0</i>
   <i type="int" name="ISIF">     3</i>
   <i name="PSTRESS">      0.00000000</i>
   <i name="EDIFFG">      0.00010000</i>
   <i type="int" name="NFREE">     0</i>
   <i name="POTIM">      0.10000000</i>
   <i name="SMASS">     -3.00000000</i>
   <i name="SCALEE">      1.00000000</i>
  </separator>
  <separator name="ionic md" >
   <i name="TEBEG">      0.00010000</i>
   <i name="TEEND">      0.00010000</i>
   <i type="int" name="NBLOCK">     1</i>
   <i type="int" name="KBLOCK">    10</i>
   <i type="int" name="NPACO">   256</i>
   <i name="APACO">     16.00000000</i>
  </separator>
  <separator name="symmetry" >
   <i type="int" name="ISYM">     2</i>
   <i name="SYMPREC">      0.00001000</i>
  </separator>
  <separator name="dos" >
   <i type="int" name="LORBIT">    10</i>
   <v name="RWIGS">     -1.00000000     -1.00000000     -1.00000000</v>
   <i type="int" name="NEDOS">   301</i>
   <i name="EMIN">     10.00000000</i>
   <i name="EMAX">    -10.00000000</i>
   <i name="EFERMI">      0.00000000</i>
  </separator>
  <separator name="writing" >
   <i type="int" name="NWRITE">     2</i>
   <i type="logical" name="LWAVE"> F  </i>
   <i type="logical" name="LDOWNSAMPLE"> F  </i>
   <i type="logical" name="LCHARG"> F  </i>
   <i type="logical" name="LPARD"> F  </i>
   <i type="logical" name="LVTOT"> F  </i>
   <i type="logical" name="LVHAR"> F  </i>
   <i type="logical" name="LELF"> F  </i>
   <i type="logical" name="LOPTICS"> F  </i>
   <v name="STM">      0.00000000      0.00000000      0.00000000      0.00000000      0.00000000      0.00000000      0.00000000</v>
  </separator>
  <separator name="performance" >
   <i type="int" name="NPAR">     5</i>
   <i type="int" name="NSIM">     4</i>
   <i type="int" name="NBLK">    -1</i>
   <i type="logical" name="LPLANE"> T  </i>
   <i type="logical" name="LSCALAPACK"> T  </i>
   <i type="logical" name="LSCAAWARE"> F  </i>
   <i type="logical" name="LSCALU"> F  </i>
   <i type="logical" name="LASYNC"> F  </i>
   <i type="logical" name="LORBITALREAL"> F  </i>
  </separator>
  <separator name="miscellaneous" >
   <i type="int" name="IDIOT">     3</i>
   <i type="int" name="ISPECIAL">     0</i>
   <i type="logical" name="LMUSIC"> F  </i>
   <v name="POMASS">     40.07800000     55.84700000     10.81100000</v>
   <v name="DARWINR">      0.00000000      0.00000000      0.00000000</v>
   <v name="DARWINV">      1.00000000      1.00000000      1.00000000</v>
   <i type="logical" name="LCORR"> T  </i>
  </separator>
  <i type="logical" name="GGA_COMPAT"> T  </i>
  <i type="logical" name="LBERRY"> F  </i>
  <i type="int" name="ICORELEVEL">     0</i>
  <i type="logical" name="LDAU"> F  </i>
  <i type="int" name="I_CONSTRAINED_M">     0</i>
  <separator name="electronic exchange-correlation" >
   <i type="string" name="GGA">--</i>
   <i type="int" name="VOSKOWN">     0</i>
   <i type="logical" name="LHFCALC"> F  </i>
   <i type="string" name="PRECFOCK"></i>
   <i type="logical" name="LSYMGRAD"> F  </i>
   <i type="logical" name="LHFONE"> F  </i>
   <i type="logical" name="LRHFCALC"> F  </i>
   <i type="logical" name="LTHOMAS"> F  </i>
   <i type="logical" name="LMODELHF"> F  </i>
   <i name="ENCUT4O">     -1.00000000</i>
   <i type="int" name="EXXOEP">     0</i>
   <i type="int" name="FOURORBIT">     0</i>
   <i name="AEXX">      0.00000000</i>
   <i name="HFALPHA">      0.00000000</i>
   <i name="MCALPHA">      0.00000000</i>
   <i name="ALDAX">      1.00000000</i>
   <i name="AGGAX">      1.00000000</i>
   <i name="ALDAC">      1.00000000</i>
   <i name="AGGAC">      1.00000000</i>
   <i type="int" name="NKREDX">     1</i>
   <i type="int" name="NKREDY">     1</i>
   <i type="int" name="NKREDZ">     1</i>
   <i type="logical" name="SHIFTRED"> F  </i>
   <i type="logical" name="ODDONLY"> F  </i>
   <i type="logical" name="EVENONLY"> F  </i>
   <i type="int" name="LMAXFOCK">     0</i>
   <i type="int" name="NMAXFOCKAE">     0</i>
   <i type="logical" name="LFOCKAEDFT"> F  </i>
   <i name="HFSCREEN">      0.00000000</i>
   <i name="HFSCREENC">      0.00000000</i>
   <i type="int" name="NBANDSGWLOW">     0</i>
  </separator>
  <separator name="vdW DFT" >
   <i type="logical" name="LUSE_VDW"> F  </i>
   <i name="Zab_VDW">     -0.84910000</i>
   <i name="PARAM1">      0.12340000</i>
   <i name="PARAM2">      1.00000000</i>
   <i name="PARAM3">      0.00000000</i>
  </separator>
  <separator name="model GW" >
   <i type="int" name="MODEL_GW">     0</i>
   <i name="MODEL_EPS0">      9.16462801</i>
   <i name="MODEL_ALPHA">      1.00000000</i>
  </separator>
  <separator name="linear response parameters" >
   <i type="logical" name="LEPSILON"> F  </i>
   <i type="logical" name="LRPA"> F  </i>
   <i type="logical" name="LNABLA"> F  </i>
   <i type="logical" name="LVEL"> F  </i>
   <i type="int" name="KINTER">     0</i>
   <i name="CSHIFT">      0.10000000</i>
   <i name="OMEGAMAX">     -1.00000000</i>
   <i name="DEG_THRESHOLD">      0.00200000</i>
   <i name="RTIME">     -0.10000000</i>
   <i name="WPLASMAI">      0.00000000</i>
   <v name="DFIELD">      0.00000000      0.00000000      0.00000000</v>
   <v name="WPLASMA">      0.00000000      0.00000000      0.00000000      0.00000000      0.00000000      0.00000000      0.00000000      0.00000000      0.00000000</v>
  </separator>
  <separator name="orbital magnetization" >
   <i type="logical" name="NUCIND"> F  </i>
   <v name="MAGPOS">      0.00000000      0.00000000      0.00000000</v>
   <i type="logical" name="LNICSALL"> T  </i>
   <i type="logical" name="ORBITALMAG"> F  </i>
   <i type="logical" name="LMAGBLOCH"> F  </i>
   <i type="logical" name="LCHIMAG"> F  </i>
   <i type="logical" name="LGAUGE"> T  </i>
   <i type="int" name="MAGATOM">     0</i>
   <v name="MAGDIPOL">      0.00000000      0.00000000      0.00000000</v>
   <v name="AVECCONST">      0.00000000      0.00000000      0.00000000</v>
  </separator>
  <separator name="response functions" >
   <i type="logical" name="LADDER"> F  </i>
   <i type="logical" name="LRPAFORCE"> F  </i>
   <i type="logical" name="LFXC"> F  </i>
   <i type="logical" name="LHARTREE"> T  </i>
   <i type="int" name="IBSE">     0</i>
   <v type="int" name="KPOINT">    -1     0     0     0</v>
   <i type="logical" name="LTCTE"> F  </i>
   <i type="logical" name="LTETE"> F  </i>
   <i type="logical" name="LTRIPLET"> F  </i>
   <i type="logical" name="LFXCEPS"> F  </i>
   <i type="logical" name="LFXHEG"> F  </i>
   <i type="int" name="NATURALO">     2</i>
   <i type="logical" name="L2ORDER"> F  </i>
   <i type="logical" name="LMP2LT"> F  </i>
   <i type="logical" name="LUSEW"> F  </i>
   <i name="ENCUTGW">     -2.00000000</i>
   <i name="ENCUTGWSOFT">     -2.00000000</i>
   <i name="ENCUTLF">     -1.00000000</i>
   <i type="int" name="LMAXMP2">    -1</i>
   <i name="SCISSOR">      0.00000000</i>
   <i type="int" name="NOMEGA">     0</i>
   <i type="int" name="NOMEGAR">     0</i>
   <i type="int" name="NBANDSGW">    -1</i>
   <i type="int" name="NBANDSO">    -1</i>
   <i type="int" name="NBANDSV">    -1</i>
   <i type="int" name="NELM">   100</i>
   <i type="int" name="NELMHF">     1</i>
   <i type="int" name="DIM">     3</i>
   <i type="int" name="ANTIRES">     0</i>
   <i name="OMEGAMAX">    -30.00000000</i>
   <i name="OMEGAMIN">    -30.00000000</i>
   <i name="OMEGATL">   -200.00000000</i>
   <i type="int" name="OMEGAGRID">   140</i>
   <i name="CSHIFT">     -0.10000000</i>
   <i type="logical" name="SELFENERGY"> F  </i>
   <i type="logical" name="LSPECTRAL"> F  </i>
   <i type="logical" name="LSPECTRALGW"> F  </i>
   <i type="logical" name="LSINGLES"> F  </i>
   <i type="logical" name="LFERMIGW"> F  </i>
   <i type="logical" name="ODDONLYGW"> F  </i>
   <i type="logical" name="EVENONLYGW"> F  </i>
   <i type="int" name="NKREDLFX">     1</i>
   <i type="int" name="NKREDLFY">     1</i>
   <i type="int" name="NKREDLFZ">     1</i>
   <i type="int" name="MAXMEM">  2800</i>
   <i type="int" name="TELESCOPE">     0</i>
   <i type="int" name="TAUPAR">     1</i>
   <i type="int" name="OMEGAPAR">    -1</i>
   <i name="LAMBDA">      1.00000000</i>
  </separator>
  <separator name="External order field" >
   <i name="OFIELD_KAPPA">      0.00000000</i>
   <v name="OFIELD_K">      0.00000000      0.00000000      0.00000000</v>
   <i name="OFIELD_Q6_NEAR">      0.00000000</i>
   <i name="OFIELD_Q6_FAR">      0.00000000</i>
   <i name="OFIELD_A">      0.00000000</i>
  </separator>
 </parameters>
 <atominfo>
  <atoms>      12 </atoms>
  <types>       3 </types>
  <array name="atoms" >
   <dimension dim="1">ion</dimension>
   <field type="string">element</field>
   <field type="int">atomtype</field>
   <set>
    <rc><c>Ca</c><c>   1</c></rc>
    <rc><c>Ca</c><c>   1</c></rc>
    <rc><c>Ca</c><c>   1</c></rc>
    <rc><c>Ca</c><c>   1</c></rc>
    <rc><c>Fe</c><c>   2</c></rc>
    <rc><c>Fe</c><c>   2</c></rc>
    <rc><c>Fe</c><c>   2</c></rc>
    <rc><c>Fe</c><c>   2</c></rc>
    <rc><c>B </c><c>   3</c></rc>
    <rc><c>B </c><c>   3</c></rc>
    <rc><c>B </c><c>   3</c></rc>
    <rc><c>B </c><c>   3</c></rc>
   </set>
  </array>
  <array name="atomtypes" >
   <dimension dim="1">type</dimension>
   <field type="int">atomspertype</field>
   <field type="string">element</field>
   <field>mass</field>
   <field>valence</field>
   <field type="string">pseudopotential</field>
   <set>
    <rc><c>   4</c><c>Ca</c><c>     40.07800000</c><c>     10.00000000</c><c>  PAW_PBE Ca_sv 06Sep2000               </c></rc>
    <rc><c>   4</c><c>Fe</c><c>     55.84700000</c><c>      8.00000000</c><c>  PAW_PBE Fe 06Sep2000                  </c></rc>
    <rc><c>   4</c><c>B </c><c>     10.81100000</c><c>      3.00000000</c><c>  PAW_PBE B 06Sep2000                   </c></rc>
   </set>
  </array>
 </atominfo>
 <structure name="initialpos" >
  <crystal>
   <varray name="basis" >
    <v>       3.41601000       0.00000000       0.00000000 </v>
    <v>       0.00000000       7.36659000       0.00000000 </v>
    <v>       0.00000000       0.00000000       7.28382000 </v>
   </varray>
   <i name="volume">    183.29256017 </i>
   <varray name="rec_basis" >
    <v>       0.29273919       0.00000000       0.00000000 </v>
    <v>       0.00000000       0.13574802       0.00000000 </v>
    <v>       0.00000000       0.00000000       0.13729060 </v>
   </varray>
  </crystal>
  <varray name="positions" >
   <v>       0.99733000       0.00116000       0.75000000 </v>
   <v>       0.00267000       0.99884000       0.25000000 </v>
   <v>       0.99733000       0.49884000       0.25000000 </v>
   <v>       0.00267000       0.50116000       0.75000000 </v>
   <v>       0.50354000       0.75000000       0.50000000 </v>
   <v>       0.49646000       0.25000000       0.50000000 </v>
   <v>       0.49646000       0.25000000       0.00000000 </v>
   <v>       0.50354000       0.75000000       0.00000000 </v>
   <v>       0.51925000       0.75282000       0.75000000 </v>
   <v>       0.48075000       0.24718000       0.25000000 </v>
   <v>       0.51925000       0.74718000       0.25000000 </v>
   <v>       0.48075000       0.25282000       0.75000000 </v>
  </varray>
 </structure>
 <calculation>
  <scstep>
   <time name="dav">    1.31    1.31</time>
   <time name="total">    1.33    1.33</time>
   <energy>
    <i name="alphaZ">    433.12062459 </i>
    <i name="ewald">  -5309.78256382 </i>
    <i name="hartreedc">  -1512.05290507 </i>
    <i name="XCdc">    212.68786700 </i>
    <i name="pawpsdc">   5377.77692215 </i>
    <i name="pawaedc">  -5365.08700770 </i>
    <i name="eentropy">     -0.00035995 </i>
    <i name="bandstr">    284.71100298 </i>
    <i name="atom">   6686.23959825 </i>
    <i name="e_fr_energy">    807.61317844 </i>
    <i name="e_wo_entrp">    807.61353839 </i>
    <i name="e_0_energy">    807.61335841 </i>
   </energy>
  </scstep>
  <scstep>
   <time name="dav">    1.28    1.28</time>
   <time name="total">    1.29    1.29</time>
   <energy>
    <i name="e_fr_energy">     15.96572209 </i>
    <i name="e_wo_entrp">     15.96600555 </i>
    <i name="e_0_energy">     15.96586382 </i>
   </energy>
  </scstep>
  <scstep>
   <time name="dav">    1.94    1.94</time>
   <time name="total">    1.94    1.94</time>
   <energy>
    <i name="e_fr_energy">    -78.83423371 </i>
    <i name="e_wo_entrp">    -78.83379986 </i>
    <i name="e_0_energy">    -78.83401678 </i>
   </energy>
  </scstep>
  <scstep>
   <time name="dav">    1.97    1.97</time>
   <time name="total">    1.97    1.98</time>
   <energy>
    <i name="e_fr_energy">    -86.91714179 </i>
    <i name="e_wo_entrp">    -86.91646177 </i>
    <i name="e_0_energy">    -86.91680178 </i>
   </energy>
  </scstep>
  <scstep>
   <time name="dav">    1.95    1.96</time>
   <time name="total">    2.01    2.01</time>
   <energy>
    <i name="e_fr_energy">    -87.40089799 </i>
    <i name="e_wo_entrp">    -87.40029449 </i>
    <i name="e_0_energy">    -87.40059624 </i>
   </energy>
  </scstep>
  <scstep>
   <time name="dav">    1.56    1.56</time>
   <time name="total">    1.64    1.64</time>
   <energy>
    <i name="e_fr_energy">   -209.97056203 </i>
    <i name="e_wo_entrp">   -209.97049773 </i>
    <i name="e_0_energy">   -209.97052988 </i>
   </energy>
  </scstep>
  <scstep>
   <time name="dav">    1.63    1.63</time>
   <time name="total">    1.71    1.72</time>
   <energy>
    <i name="e_fr_energy">    -96.08050237 </i>
    <i name="e_wo_entrp">    -96.08009960 </i>
    <i name="e_0_energy">    -96.08030099 </i>
   </energy>
  </scstep>
  <scstep>
   <time name="dav">    1.74    1.74</time>
   <time name="total">    1.81    1.81</time>
   <energy>
    <i name="e_fr_energy">    -58.42496629 </i>
    <i name="e_wo_entrp">    -58.42439142 </i>
    <i name="e_0_energy">    -58.42467886 </i>
   </energy>
  </scstep>
  <scstep>
   <time name="dav">    1.97    1.97</time>
   <time name="total">    2.04    2.04</time>
   <energy>
    <i name="e_fr_energy">    -59.38782122 </i>
    <i name="e_wo_entrp">    -59.38695772 </i>
    <i name="e_0_energy">    -59.38738947 </i>
   </energy>
  </scstep>
  <scstep>
   <time name="dav">    1.79    1.79</time>
   <time name="total">    1.87    1.88</time>
   <energy>
    <i name="e_fr_energy">    -59.35877168 </i>
    <i name="e_wo_entrp">    -59.35758899 </i>
    <i name="e_0_energy">    -59.35818034 </i>
   </energy>
  </scstep>
  <scstep>
   <time name="dav">    1.77    1.77</time>
   <time name="total">    1.85    1.85</time>
   <energy>
    <i name="e_fr_energy">    -59.41366536 </i>
    <i name="e_wo_entrp">    -59.41261126 </i>
    <i name="e_0_energy">    -59.41313831 </i>
   </energy>
  </scstep>
  <scstep>
   <time name="dav">    1.71    1.71</time>
   <time name="total">    1.79    1.79</time>
   <energy>
    <i name="e_fr_energy">    -59.35771510 </i>
    <i name="e_wo_entrp">    -59.35672374 </i>
    <i name="e_0_energy">    -59.35721942 </i>
   </energy>
  </scstep>
  <scstep>
   <time name="dav">    1.62    1.62</time>
   <time name="total">    1.70    1.70</time>
   <energy>
    <i name="e_fr_energy">    -59.34779432 </i>
    <i name="e_wo_entrp">    -59.34632648 </i>
    <i name="e_0_energy">    -59.34706040 </i>
   </energy>
  </scstep>
  <scstep>
   <time name="dav">    1.94    1.94</time>
   <time name="total">    2.02    2.02</time>
   <energy>
    <i name="e_fr_energy">    -59.34311088 </i>
    <i name="e_wo_entrp">    -59.34187984 </i>
    <i name="e_0_energy">    -59.34249536 </i>
   </energy>
  </scstep>
  <scstep>
   <time name="dav">    1.65    1.65</time>
   <time name="total">    1.72    1.72</time>
   <energy>
    <i name="e_fr_energy">    -59.34138909 </i>
    <i name="e_wo_entrp">    -59.34023355 </i>
    <i name="e_0_energy">    -59.34081132 </i>
   </energy>
  </scstep>
  <scstep>
   <time name="dav">    1.68    1.68</time>
   <time name="total">    1.76    1.77</time>
   <energy>
    <i name="e_fr_energy">    -59.34102805 </i>
    <i name="e_wo_entrp">    -59.33994638 </i>
    <i name="e_0_energy">    -59.34048721 </i>
   </energy>
  </scstep>
  <scstep>
   <time name="dav">    1.78    1.78</time>
   <time name="total">    1.86    1.86</time>
   <energy>
    <i name="e_fr_energy">    -59.34101836 </i>
    <i name="e_wo_entrp">    -59.33995221 </i>
    <i name="e_0_energy">    -59.34048529 </i>
   </energy>
  </scstep>
  <scstep>
   <time name="dav">    1.55    1.55</time>
   <time name="total">    1.63    1.63</time>
   <energy>
    <i name="e_fr_energy">    -59.34097668 </i>
    <i name="e_wo_entrp">    -59.33988242 </i>
    <i name="e_0_energy">    -59.34042955 </i>
   </energy>
  </scstep>
  <scstep>
   <time name="dav">    1.10    1.10</time>
   <time name="total">    1.17    1.17</time>
   <energy>
    <i name="e_fr_energy">    -59.34098721 </i>
    <i name="e_wo_entrp">    -59.33989876 </i>
    <i name="e_0_energy">    -59.34044299 </i>
   </energy>
  </scstep>
  <scstep>
   <time name="dav">    1.07    1.07</time>
   <time name="total">    1.08    1.10</time>
   <energy>
    <i name="alphaZ">    433.12062459 </i>
    <i name="ewald">  -5309.78256382 </i>
    <i name="hartreedc">  -1444.85704341 </i>
    <i name="XCdc">    210.57005302 </i>
    <i name="pawpsdc">   6484.74042407 </i>
    <i name="pawaedc">  -6504.24544103 </i>
    <i name="eentropy">     -0.00109071 </i>
    <i name="bandstr">   -615.12555283 </i>
    <i name="atom">   6686.23959825 </i>
    <i name="e_fr_energy">    -59.34099187 </i>
    <i name="e_wo_entrp">    -59.33990116 </i>
    <i name="e_0_energy">    -59.34044652 </i>
   </energy>
  </scstep>
  <structure>
   <crystal>
    <varray name="basis" >
     <v>       3.41601000       0.00000000       0.00000000 </v>
     <v>       0.00000000       7.36659000       0.00000000 </v>
     <v>       0.00000000       0.00000000       7.28382000 </v>
    </varray>
    <i name="volume">    183.29256017 </i>
    <varray name="rec_basis" >
     <v>       0.29273919       0.00000000       0.00000000 </v>
     <v>       0.00000000       0.13574802       0.00000000 </v>
     <v>       0.00000000       0.00000000       0.13729060 </v>
    </varray>
   </crystal>
   <varray name="positions" >
    <v>       0.99733000       0.00116000       0.75000000 </v>
    <v>       0.00267000       0.99884000       0.25000000 </v>
    <v>       0.99733000       0.49884000       0.25000000 </v>
    <v>       0.00267000       0.50116000       0.75000000 </v>
    <v>       0.50354000       0.75000000       0.50000000 </v>
    <v>       0.49646000       0.25000000       0.50000000 </v>
    <v>       0.49646000       0.25000000       0.00000000 </v>
    <v>       0.50354000       0.75000000       0.00000000 </v>
    <v>       0.51925000       0.75282000       0.75000000 </v>
    <v>       0.48075000       0.24718000       0.25000000 </v>
    <v>       0.51925000       0.74718000       0.25000000 </v>
    <v>       0.48075000       0.25282000       0.75000000 </v>
   </varray>
  </structure>
  <varray name="forces" >
   <v>       0.09376383       0.09283293      -0.00000000 </v>
   <v>      -0.09376383      -0.09283293       0.00000000 </v>
   <v>       0.09376383      -0.09283293      -0.00000000 </v>
   <v>      -0.09376383       0.09283293       0.00000000 </v>
   <v>      -0.31400644       0.00000000       0.00000000 </v>
   <v>       0.31400644       0.00000000      -0.00000000 </v>
   <v>       0.31400644       0.00000000       0.00000000 </v>
   <v>      -0.31400644       0.00000000       0.00000000 </v>
   <v>      -0.09974059      -0.08725721       0.00000000 </v>
   <v>       0.09974059       0.08725721       0.00000000 </v>
   <v>      -0.09974059       0.08725721       0.00000000 </v>
   <v>       0.09974059      -0.08725721       0.00000000 </v>
  </varray>
  <varray name="stress" >
   <v>      92.95667039       0.00000000      -0.00000000 </v>
   <v>       0.00000000     112.61404081       0.00000000 </v>
   <v>       0.00000000       0.00000000     192.70853485 </v>
  </varray>
  <energy>
   <i name="e_fr_energy">    -59.34099187 </i>
   <i name="e_wo_entrp">    -59.34044652 </i>
   <i name="e_0_energy">     -0.00109071 </i>
  </energy>
  <time name="totalsc">   35.44   35.50</time>
 </calculation>
 <calculation>
  <scstep>
   <time name="dav">    1.40    1.40</time>
   <time name="total">    1.48    1.48</time>
   <energy>
    <i name="alphaZ">    417.64245617 </i>
    <i name="ewald">  -5248.05766752 </i>
    <i name="hartreedc">  -1426.92672157 </i>
    <i name="XCdc">    206.97264369 </i>
    <i name="pawpsdc">   6484.62371270 </i>
    <i name="pawaedc">  -6504.12881888 </i>
    <i name="eentropy">     -0.00065075 </i>
    <i name="bandstr">   -677.75965770 </i>
    <i name="atom">   6686.23959825 </i>
    <i name="e_fr_energy">    -61.39510561 </i>
    <i name="e_wo_entrp">    -61.39445486 </i>
    <i name="e_0_energy">    -61.39478023 </i>
   </energy>
  </scstep>
  <scstep>
   <time name="dav">    1.94    1.94</time>
   <time name="total">    2.01    2.01</time>
   <energy>
    <i name="e_fr_energy">    -80.95987421 </i>
    <i name="e_wo_entrp">    -80.95923666 </i>
    <i name="e_0_energy">    -80.95955544 </i>
   </energy>
  </scstep>
  <scstep>
   <time name="dav">    1.63    1.63</time>
   <time name="total">    1.71    1.71</time>
   <energy>
    <i name="e_fr_energy">    -59.82771608 </i>
    <i name="e_wo_entrp">    -59.82595105 </i>
    <i name="e_0_energy">    -59.82683356 </i>
   </energy>
  </scstep>
  <scstep>
   <time name="dav">    1.72    1.72</time>
   <time name="total">    1.80    1.80</time>
   <energy>
    <i name="e_fr_energy">    -59.89278108 </i>
    <i name="e_wo_entrp">    -59.89148960 </i>
    <i name="e_0_energy">    -59.89213534 </i>
   </energy>
  </scstep>
  <scstep>
   <time name="dav">    1.98    1.98</time>
   <time name="total">    2.06    2.06</time>
   <energy>
    <i name="e_fr_energy">    -59.85593373 </i>
    <i name="e_wo_entrp">    -59.85493051 </i>
    <i name="e_0_energy">    -59.85543212 </i>
   </energy>
  </scstep>
  <scstep>
   <time name="dav">    1.95    1.95</time>
   <time name="total">    2.02    2.04</time>
   <energy>
    <i name="e_fr_energy">    -59.85380309 </i>
    <i name="e_wo_entrp">    -59.85235485 </i>
    <i name="e_0_energy">    -59.85307897 </i>
   </energy>
  </scstep>
  <scstep>
   <time name="dav">    2.09    2.09</time>
   <time name="total">    2.17    2.17</time>
   <energy>
    <i name="e_fr_energy">    -59.85405477 </i>
    <i name="e_wo_entrp">    -59.85265708 </i>
    <i name="e_0_energy">    -59.85335592 </i>
   </energy>
  </scstep>
  <scstep>
   <time name="dav">    2.02    2.02</time>
   <time name="total">    2.10    2.10</time>
   <energy>
    <i name="e_fr_energy">    -59.85456793 </i>
    <i name="e_wo_entrp">    -59.85311159 </i>
    <i name="e_0_energy">    -59.85383976 </i>
   </energy>
  </scstep>
  <scstep>
   <time name="dav">    1.76    1.76</time>
   <time name="total">    1.84    1.84</time>
   <energy>
    <i name="e_fr_energy">    -59.85458302 </i>
    <i name="e_wo_entrp">    -59.85314422 </i>
    <i name="e_0_energy">    -59.85386362 </i>
   </energy>
  </scstep>
  <scstep>
   <time name="dav">    1.42    1.42</time>
   <time name="total">    1.44    1.44</time>
   <energy>
    <i name="alphaZ">    417.64245617 </i>
    <i name="ewald">  -5248.05766752 </i>
    <i name="hartreedc">  -1471.22503018 </i>
    <i name="XCdc">    209.48410825 </i>
    <i name="pawpsdc">   6365.14217101 </i>
    <i name="pawaedc">  -6384.80806532 </i>
    <i name="eentropy">     -0.00145183 </i>
    <i name="bandstr">   -634.27070870 </i>
    <i name="atom">   6686.23959825 </i>
    <i name="e_fr_energy">    -59.85458987 </i>
    <i name="e_wo_entrp">    -59.85313804 </i>
    <i name="e_0_energy">    -59.85386395 </i>
   </energy>
  </scstep>
  <structure>
   <crystal>
    <varray name="basis" >
     <v>       3.44521881       0.00000000      -0.00000000 </v>
     <v>       0.00000000       7.44289856       0.00000000 </v>
     <v>       0.00000000       0.00000000       7.41293430 </v>
    </varray>
    <i name="volume">    190.08553123 </i>
    <varray name="rec_basis" >
     <v>       0.29025733       0.00000000      -0.00000000 </v>
     <v>       0.00000000       0.13435626       0.00000000 </v>
     <v>       0.00000000       0.00000000       0.13489935 </v>
    </varray>
   </crystal>
   <varray name="positions" >
    <v>       0.99759484       0.00128159       0.75000000 </v>
    <v>       0.00240516       0.99871841       0.25000000 </v>
    <v>       0.99759484       0.49871841       0.25000000 </v>
    <v>       0.00240516       0.50128159       0.75000000 </v>
    <v>       0.50265309       0.75000000       0.50000000 </v>
    <v>       0.49734691       0.25000000       0.50000000 </v>
    <v>       0.49734691       0.25000000       0.00000000 </v>
    <v>       0.50265309       0.75000000       0.00000000 </v>
    <v>       0.51896828       0.75270571       0.75000000 </v>
    <v>       0.48103172       0.24729429       0.25000000 </v>
    <v>       0.51896828       0.74729429       0.25000000 </v>
    <v>       0.48103172       0.25270571       0.75000000 </v>
   </varray>
  </structure>
  <varray name="forces" >
   <v>       0.07830215       0.06980487      -0.00000000 </v>
   <v>      -0.07830215      -0.06980487       0.00000000 </v>
   <v>       0.07830215      -0.06980487      -0.00000000 </v>
   <v>      -0.07830215       0.06980487       0.00000000 </v>
   <v>      -0.19931450       0.00000000       0.00000000 </v>
   <v>       0.19931450       0.00000000      -0.00000000 </v>
   <v>       0.19931450       0.00000000      -0.00000000 </v>
   <v>      -0.19931450       0.00000000       0.00000000 </v>
   <v>      -0.17611133      -0.07997951       0.00000000 </v>
   <v>       0.17611133       0.07997951      -0.00000000 </v>
   <v>      -0.17611133       0.07997951       0.00000000 </v>
   <v>       0.17611133      -0.07997951      -0.00000000 </v>
  </varray>
  <varray name="stress" >
   <v>      69.13741543       0.00000000      -0.00000000 </v>
   <v>       0.00000000      80.88319807       0.00000000 </v>
   <v>       0.00000000       0.00000000     117.41234327 </v>
  </varray>
  <energy>
   <i name="e_fr_energy">    -59.85458987 </i>
   <i name="e_wo_entrp">    -59.85386395 </i>
   <i name="e_0_energy">     -0.00145183 </i>
  </energy>
  <time name="totalsc">   19.88   19.90</time>
 </calculation>
 <calculation>
  <scstep>
   <time name="dav">    1.41    1.41</time>
   <time name="total">    1.49    1.49</time>
   <energy>
    <i name="alphaZ">    387.24991840 </i>
    <i name="ewald">  -5120.59435964 </i>
    <i name="hartreedc">  -1433.90638288 </i>
    <i name="XCdc">    202.08577007 </i>
    <i name="pawpsdc">   6365.30045383 </i>
    <i name="pawaedc">  -6384.96418907 </i>
    <i name="eentropy">     -0.00037876 </i>
    <i name="bandstr">   -768.65345612 </i>
    <i name="atom">   6686.23959825 </i>
    <i name="e_fr_energy">    -67.24302592 </i>
    <i name="e_wo_entrp">    -67.24264717 </i>
    <i name="e_0_energy">    -67.24283654 </i>
   </energy>
  </scstep>
  <scstep>
   <time name="dav">    1.99    1.99</time>
   <time name="total">    2.07    2.07</time>
   <energy>
    <i name="e_fr_energy">   -138.78529310 </i>
    <i name="e_wo_entrp">   -138.78473071 </i>
    <i name="e_0_energy">   -138.78501190 </i>
   </energy>
  </scstep>
  <scstep>
   <time name="dav">    1.62    1.62</time>
   <time name="total">    1.70    1.70</time>
   <energy>
    <i name="e_fr_energy">    -60.35737042 </i>
    <i name="e_wo_entrp">    -60.35533412 </i>
    <i name="e_0_energy">    -60.35635227 </i>
   </energy>
  </scstep>
  <scstep>
   <time name="dav">    1.85    1.85</time>
   <time name="total">    1.93    1.93</time>
   <energy>
    <i name="e_fr_energy">    -60.43602035 </i>
    <i name="e_wo_entrp">    -60.43500710 </i>
    <i name="e_0_energy">    -60.43551373 </i>
   </energy>
  </scstep>
  <scstep>
   <time name="dav">    1.92    1.92</time>
   <time name="total">    2.00    2.00</time>
   <energy>
    <i name="e_fr_energy">    -60.31812281 </i>
    <i name="e_wo_entrp">    -60.31722885 </i>
    <i name="e_0_energy">    -60.31767583 </i>
   </energy>
  </scstep>
  <scstep>
   <time name="dav">    1.94    1.94</time>
   <time name="total">    2.02    2.02</time>
   <energy>
    <i name="e_fr_energy">    -60.29530588 </i>
    <i name="e_wo_entrp">    -60.29446182 </i>
    <i name="e_0_energy">    -60.29488385 </i>
   </energy>
  </scstep>
  <scstep>
   <time name="dav">    2.15    2.15</time>
   <time name="total">    2.23    2.23</time>
   <energy>
    <i name="e_fr_energy">    -60.29479068 </i>
    <i name="e_wo_entrp">    -60.29397030 </i>
    <i name="e_0_energy">    -60.29438049 </i>
   </energy>
  </scstep>
  <scstep>
   <time name="dav">    1.95    1.95</time>
   <time name="total">    2.03    2.03</time>
   <energy>
    <i name="e_fr_energy">    -60.29517036 </i>
    <i name="e_wo_entrp">    -60.29420808 </i>
    <i name="e_0_energy">    -60.29468922 </i>
   </energy>
  </scstep>
  <scstep>
   <time name="dav">    1.99    1.99</time>
   <time name="total">    2.07    2.07</time>
   <energy>
    <i name="e_fr_energy">    -60.29518052 </i>
    <i name="e_wo_entrp">    -60.29422989 </i>
    <i name="e_0_energy">    -60.29470520 </i>
   </energy>
  </scstep>
  <scstep>
   <time name="dav">    1.64    1.64</time>
   <time name="total">    1.72    1.72</time>
   <energy>
    <i name="e_fr_energy">    -60.29517171 </i>
    <i name="e_wo_entrp">    -60.29418811 </i>
    <i name="e_0_energy">    -60.29467991 </i>
   </energy>
  </scstep>
  <scstep>
   <time name="dav">    1.07    1.07</time>
   <time name="total">    1.09    1.09</time>
   <energy>
    <i name="alphaZ">    387.24991840 </i>
    <i name="ewald">  -5120.59435964 </i>
    <i name="hartreedc">  -1527.63331647 </i>
    <i name="XCdc">    207.37905081 </i>
    <i name="pawpsdc">   6151.09675020 </i>
    <i name="pawaedc">  -6171.10393726 </i>
    <i name="eentropy">     -0.00097840 </i>
    <i name="bandstr">   -672.92789613 </i>
    <i name="atom">   6686.23959825 </i>
    <i name="e_fr_energy">    -60.29517025 </i>
    <i name="e_wo_entrp">    -60.29419185 </i>
    <i name="e_0_energy">    -60.29468105 </i>
   </energy>
  </scstep>
  <structure>
   <crystal>
    <varray name="basis" >
     <v>       3.51341309       0.00000000      -0.00000000 </v>
     <v>       0.00000000       7.61525137       0.00000000 </v>
     <v>       0.00000000       0.00000000       7.66211929 </v>
    </varray>
    <i name="volume">    205.00401517 </i>
    <varray name="rec_basis" >
     <v>       0.28462352       0.00000000      -0.00000000 </v>
     <v>       0.00000000       0.13131543       0.00000000 </v>
     <v>       0.00000000       0.00000000       0.13051219 </v>
    </varray>
   </crystal>
   <varray name="positions" >
    <v>       0.99825298       0.00155317       0.75000000 </v>
    <v>       0.00174702       0.99844683       0.25000000 </v>
    <v>       0.99825298       0.49844683       0.25000000 </v>
    <v>       0.00174702       0.50155317       0.75000000 </v>
    <v>       0.50097783       0.75000000       0.50000000 </v>
    <v>       0.49902217       0.25000000       0.50000000 </v>
    <v>       0.49902217       0.25000000       0.00000000 </v>
    <v>       0.50097783       0.75000000      -0.00000000 </v>
    <v>       0.51748805       0.75239454       0.75000000 </v>
    <v>       0.48251195       0.24760546       0.25000000 </v>
    <v>       0.51748805       0.74760546       0.25000000 </v>
    <v>       0.48251195       0.25239454       0.75000000 </v>
   </varray>
  </structure>
  <varray name="forces" >
   <v>       0.04700662       0.02680391      -0.00000000 </v>
   <v>      -0.04700662      -0.02680391       0.00000000 </v>
   <v>       0.04700662      -0.02680391      -0.00000000 </v>
   <v>      -0.04700662       0.02680391       0.00000000 </v>
   <v>      -0.02341715       0.00000000       0.00000000 </v>
   <v>       0.02341715       0.00000000      -0.00000000 </v>
   <v>       0.02341715      -0.00000000      -0.00000000 </v>
   <v>      -0.02341715       0.00000000       0.00000000 </v>
   <v>      -0.26470812      -0.05711461       0.00000000 </v>
   <v>       0.26470812       0.05711461      -0.00000000 </v>
   <v>      -0.26470812       0.05711461       0.00000000 </v>
   <v>       0.26470812      -0.05711461      -0.00000000 </v>
  </varray>
  <varray name="stress" >
   <v>      18.84646406       0.00000000      -0.00000000 </v>
   <v>       0.00000000      22.43261327       0.00000000 </v>
   <v>      -0.00000000       0.00000000     -13.18869744 </v>
  </varray>
  <energy>
   <i name="e_fr_energy">    -60.29517025 </i>
   <i name="e_wo_entrp">    -60.29468105 </i>
   <i name="e_0_energy">     -0.00097840 </i>
  </energy>
  <time name="totalsc">   21.59   21.61</time>
 </calculation>
 <calculation>
  <scstep>
   <time name="dav">    1.36    1.36</time>
   <time name="total">    1.44    1.44</time>
   <energy>
    <i name="alphaZ">    386.45587251 </i>
    <i name="ewald">  -5116.24528823 </i>
    <i name="hartreedc">  -1526.79801887 </i>
    <i name="XCdc">    207.17532441 </i>
    <i name="pawpsdc">   6151.40551229 </i>
    <i name="pawaedc">  -6171.39115652 </i>
    <i name="eentropy">     -0.00125229 </i>
    <i name="bandstr">   -677.16292425 </i>
    <i name="atom">   6686.23959825 </i>
    <i name="e_fr_energy">    -60.32233268 </i>
    <i name="e_wo_entrp">    -60.32108040 </i>
    <i name="e_0_energy">    -60.32170654 </i>
   </energy>
  </scstep>
  <scstep>
   <time name="dav">    1.86    1.86</time>
   <time name="total">    1.94    1.94</time>
   <energy>
    <i name="e_fr_energy">    -60.50940364 </i>
    <i name="e_wo_entrp">    -60.50832033 </i>
    <i name="e_0_energy">    -60.50886198 </i>
   </energy>
  </scstep>
  <scstep>
   <time name="dav">    1.67    1.67</time>
   <time name="total">    1.75    1.75</time>
   <energy>
    <i name="e_fr_energy">    -60.30916041 </i>
    <i name="e_wo_entrp">    -60.30836946 </i>
    <i name="e_0_energy">    -60.30876493 </i>
   </energy>
  </scstep>
  <scstep>
   <time name="dav">    1.61    1.61</time>
   <time name="total">    1.69    1.69</time>
   <energy>
    <i name="e_fr_energy">    -60.30977038 </i>
    <i name="e_wo_entrp">    -60.30854078 </i>
    <i name="e_0_energy">    -60.30915558 </i>
   </energy>
  </scstep>
  <scstep>
   <time name="dav">    1.98    1.98</time>
   <time name="total">    2.06    2.06</time>
   <energy>
    <i name="e_fr_energy">    -60.30935468 </i>
    <i name="e_wo_entrp">    -60.30825119 </i>
    <i name="e_0_energy">    -60.30880294 </i>
   </energy>
  </scstep>
  <scstep>
   <time name="dav">    1.71    1.71</time>
   <time name="total">    1.79    1.79</time>
   <energy>
    <i name="e_fr_energy">    -60.30933479 </i>
    <i name="e_wo_entrp">    -60.30825402 </i>
    <i name="e_0_energy">    -60.30879440 </i>
   </energy>
  </scstep>
  <scstep>
   <time name="dav">    1.45    1.45</time>
   <time name="total">    1.53    1.53</time>
   <energy>
    <i name="e_fr_energy">    -60.30932323 </i>
    <i name="e_wo_entrp">    -60.30825003 </i>
    <i name="e_0_energy">    -60.30878663 </i>
   </energy>
  </scstep>
  <scstep>
   <time name="dav">    1.03    1.03</time>
   <time name="total">    1.05    1.05</time>
   <energy>
    <i name="alphaZ">    386.45587251 </i>
    <i name="ewald">  -5116.24528823 </i>
    <i name="hartreedc">  -1529.78124852 </i>
    <i name="XCdc">    207.34687660 </i>
    <i name="pawpsdc">   6153.35693913 </i>
    <i name="pawaedc">  -6173.43021726 </i>
    <i name="eentropy">     -0.00106996 </i>
    <i name="bandstr">   -674.25078401 </i>
    <i name="atom">   6686.23959825 </i>
    <i name="e_fr_energy">    -60.30932151 </i>
    <i name="e_wo_entrp">    -60.30825154 </i>
    <i name="e_0_energy">    -60.30878652 </i>
   </energy>
  </scstep>
  <structure>
   <crystal>
    <varray name="basis" >
     <v>       3.51939804       0.00000000      -0.00000000 </v>
     <v>       0.00000000       7.63072983       0.00000000 </v>
     <v>       0.00000000       0.00000000       7.64925828 </v>
    </varray>
    <i name="volume">    205.42523427 </i>
    <varray name="rec_basis" >
     <v>       0.28413950       0.00000000      -0.00000000 </v>
     <v>       0.00000000       0.13104906       0.00000000 </v>
     <v>       0.00000000       0.00000000       0.13073163 </v>
    </varray>
   </crystal>
   <varray name="positions" >
    <v>       0.99837308       0.00158373       0.75000000 </v>
    <v>       0.00162692       0.99841627       0.25000000 </v>
    <v>       0.99837308       0.49841627       0.25000000 </v>
    <v>       0.00162692       0.50158373       0.75000000 </v>
    <v>       0.50093221       0.75000000       0.50000000 </v>
    <v>       0.49906779       0.25000000       0.50000000 </v>
    <v>       0.49906779       0.25000000       0.00000000 </v>
    <v>       0.50093221       0.75000000      -0.00000000 </v>
    <v>       0.51678822       0.75232661       0.75000000 </v>
    <v>       0.48321178       0.24767339       0.25000000 </v>
    <v>       0.51678822       0.74767339       0.25000000 </v>
    <v>       0.48321178       0.25232661       0.75000000 </v>
   </varray>
  </structure>
  <varray name="forces" >
   <v>       0.04271393       0.02124173      -0.00000000 </v>
   <v>      -0.04271393      -0.02124173       0.00000000 </v>
   <v>       0.04271393      -0.02124173      -0.00000000 </v>
   <v>      -0.04271393       0.02124173       0.00000000 </v>
   <v>      -0.03238322      -0.00000000       0.00000000 </v>
   <v>       0.03238322      -0.00000000      -0.00000000 </v>
   <v>       0.03238322      -0.00000000      -0.00000000 </v>
   <v>      -0.03238322      -0.00000000       0.00000000 </v>
   <v>      -0.23880612      -0.05038586       0.00000000 </v>
   <v>       0.23880612       0.05038586      -0.00000000 </v>
   <v>      -0.23880612       0.05038586       0.00000000 </v>
   <v>       0.23880612      -0.05038586      -0.00000000 </v>
  </varray>
  <varray name="stress" >
   <v>      16.32236490       0.00000000       0.00000000 </v>
   <v>       0.00000000      19.65181858       0.00000000 </v>
   <v>       0.00000000       0.00000000      -7.58851954 </v>
  </varray>
  <energy>
   <i name="e_fr_energy">    -60.30932151 </i>
   <i name="e_wo_entrp">    -60.30878652 </i>
   <i name="e_0_energy">     -0.00106996 </i>
  </energy>
  <time name="totalsc">   14.48   14.48</time>
 </calculation>
 <calculation>
  <scstep>
   <time name="dav">    1.40    1.40</time>
   <time name="total">    1.48    1.51</time>
   <energy>
    <i name="alphaZ">    378.75857090 </i>
    <i name="ewald">  -5078.48216591 </i>
    <i name="hartreedc">  -1520.29039800 </i>
    <i name="XCdc">    205.35795622 </i>
    <i name="pawpsdc">   6153.33671747 </i>
    <i name="pawaedc">  -6173.40980631 </i>
    <i name="eentropy">     -0.00097275 </i>
    <i name="bandstr">   -712.71459251 </i>
    <i name="atom">   6686.23959825 </i>
    <i name="e_fr_energy">    -61.20509265 </i>
    <i name="e_wo_entrp">    -61.20411990 </i>
    <i name="e_0_energy">    -61.20460627 </i>
   </energy>
  </scstep>
  <scstep>
   <time name="dav">    1.94    1.94</time>
   <time name="total">    2.02    2.02</time>
   <energy>
    <i name="e_fr_energy">    -79.03401821 </i>
    <i name="e_wo_entrp">    -79.03273663 </i>
    <i name="e_0_energy">    -79.03337742 </i>
   </energy>
  </scstep>
  <scstep>
   <time name="dav">    1.62    1.62</time>
   <time name="total">    1.70    1.70</time>
   <energy>
    <i name="e_fr_energy">    -60.31803794 </i>
    <i name="e_wo_entrp">    -60.31668257 </i>
    <i name="e_0_energy">    -60.31736025 </i>
   </energy>
  </scstep>
  <scstep>
   <time name="dav">    1.73    1.73</time>
   <time name="total">    1.81    1.83</time>
   <energy>
    <i name="e_fr_energy">    -60.38752570 </i>
    <i name="e_wo_entrp">    -60.38671114 </i>
    <i name="e_0_energy">    -60.38711842 </i>
   </energy>
  </scstep>
  <scstep>
   <time name="dav">    1.83    1.83</time>
   <time name="total">    1.91    1.91</time>
   <energy>
    <i name="e_fr_energy">    -60.35641566 </i>
    <i name="e_wo_entrp">    -60.35563801 </i>
    <i name="e_0_energy">    -60.35602683 </i>
   </energy>
  </scstep>
  <scstep>
   <time name="dav">    1.74    1.74</time>
   <time name="total">    1.82    1.82</time>
   <energy>
    <i name="e_fr_energy">    -60.34763519 </i>
    <i name="e_wo_entrp">    -60.34607635 </i>
    <i name="e_0_energy">    -60.34685577 </i>
   </energy>
  </scstep>
  <scstep>
   <time name="dav">    1.85    1.85</time>
   <time name="total">    1.93    1.94</time>
   <energy>
    <i name="e_fr_energy">    -60.34605140 </i>
    <i name="e_wo_entrp">    -60.34481059 </i>
    <i name="e_0_energy">    -60.34543099 </i>
   </energy>
  </scstep>
  <scstep>
   <time name="dav">    2.02    2.02</time>
   <time name="total">    2.09    2.09</time>
   <energy>
    <i name="e_fr_energy">    -60.34575422 </i>
    <i name="e_wo_entrp">    -60.34454233 </i>
    <i name="e_0_energy">    -60.34514828 </i>
   </energy>
  </scstep>
  <scstep>
   <time name="dav">    2.02    2.02</time>
   <time name="total">    2.09    2.10</time>
   <energy>
    <i name="e_fr_energy">    -60.34577195 </i>
    <i name="e_wo_entrp">    -60.34453906 </i>
    <i name="e_0_energy">    -60.34515550 </i>
   </energy>
  </scstep>
  <scstep>
   <time name="dav">    2.04    2.04</time>
   <time name="total">    2.12    2.12</time>
   <energy>
    <i name="e_fr_energy">    -60.34581921 </i>
    <i name="e_wo_entrp">    -60.34458204 </i>
    <i name="e_0_energy">    -60.34520062 </i>
   </energy>
  </scstep>
  <scstep>
   <time name="dav">    1.09    1.09</time>
   <time name="total">    1.11    1.11</time>
   <energy>
    <i name="alphaZ">    378.75857090 </i>
    <i name="ewald">  -5078.48216591 </i>
    <i name="hartreedc">  -1547.70515366 </i>
    <i name="XCdc">    206.91121974 </i>
    <i name="pawpsdc">   6133.81170806 </i>
    <i name="pawaedc">  -6154.25442491 </i>
    <i name="eentropy">     -0.00123746 </i>
    <i name="bandstr">   -685.62394315 </i>
    <i name="atom">   6686.23959825 </i>
    <i name="e_fr_energy">    -60.34582814 </i>
    <i name="e_wo_entrp">    -60.34459068 </i>
    <i name="e_0_energy">    -60.34520941 </i>
   </energy>
  </scstep>
  <structure>
   <crystal>
    <varray name="basis" >
     <v>       3.55621518       0.00000000       0.00000000 </v>
     <v>       0.00000000       7.72653223       0.00000000 </v>
     <v>       0.00000000       0.00000000       7.62813870 </v>
    </varray>
    <i name="volume">    209.59997804 </i>
    <varray name="rec_basis" >
     <v>       0.28119783       0.00000000      -0.00000000 </v>
     <v>       0.00000000       0.12942417       0.00000000 </v>
     <v>      -0.00000000       0.00000000       0.13109358 </v>
    </varray>
   </crystal>
   <varray name="positions" >
    <v>       0.99906517       0.00174901       0.75000000 </v>
    <v>       0.00093483       0.99825099       0.25000000 </v>
    <v>       0.99906517       0.49825099       0.25000000 </v>
    <v>       0.00093483       0.50174901       0.75000000 </v>
    <v>       0.50034962       0.75000000       0.50000000 </v>
    <v>       0.49965038       0.25000000       0.50000000 </v>
    <v>       0.49965038       0.25000000       0.00000000 </v>
    <v>       0.50034962       0.75000000      -0.00000000 </v>
    <v>       0.51303156       0.75195232       0.75000000 </v>
    <v>       0.48696844       0.24804768       0.25000000 </v>
    <v>       0.51303156       0.74804768       0.25000000 </v>
    <v>       0.48696844       0.25195232       0.75000000 </v>
   </varray>
  </structure>
  <varray name="forces" >
   <v>       0.02086892      -0.00681105       0.00000000 </v>
   <v>      -0.02086892       0.00681105      -0.00000000 </v>
   <v>       0.02086892       0.00681105       0.00000000 </v>
   <v>      -0.02086892      -0.00681105      -0.00000000 </v>
   <v>      -0.05155374      -0.00000000      -0.00000000 </v>
   <v>       0.05155374      -0.00000000       0.00000000 </v>
   <v>       0.05155374      -0.00000000       0.00000000 </v>
   <v>      -0.05155374      -0.00000000      -0.00000000 </v>
   <v>      -0.13295205      -0.01908473      -0.00000000 </v>
   <v>       0.13295205       0.01908473       0.00000000 </v>
   <v>      -0.13295205       0.01908473      -0.00000000 </v>
   <v>       0.13295205      -0.01908473       0.00000000 </v>
  </varray>
  <varray name="stress" >
   <v>      -2.16823525       0.00000000       0.00000000 </v>
   <v>       0.00000000      -0.62548832       0.00000000 </v>
   <v>       0.00000000       0.00000000      -2.71726069 </v>
  </varray>
  <energy>
   <i name="e_fr_energy">    -60.34582814 </i>
   <i name="e_wo_entrp">    -60.34520941 </i>
   <i name="e_0_energy">     -0.00123746 </i>
  </energy>
  <time name="totalsc">   21.31   21.37</time>
 </calculation>
 <calculation>
  <scstep>
   <time name="dav">    1.33    1.33</time>
   <time name="total">    1.41    1.41</time>
   <energy>
    <i name="alphaZ">    378.98542609 </i>
    <i name="ewald">  -5079.46922110 </i>
    <i name="hartreedc">  -1548.03808938 </i>
    <i name="XCdc">    206.97177071 </i>
    <i name="pawpsdc">   6133.87117540 </i>
    <i name="pawaedc">  -6154.31333840 </i>
    <i name="eentropy">     -0.00119592 </i>
    <i name="bandstr">   -684.59339975 </i>
    <i name="atom">   6686.23959825 </i>
    <i name="e_fr_energy">    -60.34727409 </i>
    <i name="e_wo_entrp">    -60.34607817 </i>
    <i name="e_0_energy">    -60.34667613 </i>
   </energy>
  </scstep>
  <scstep>
   <time name="dav">    1.84    1.84</time>
   <time name="total">    1.92    1.92</time>
   <energy>
    <i name="e_fr_energy">    -60.36519690 </i>
    <i name="e_wo_entrp">    -60.36380160 </i>
    <i name="e_0_energy">    -60.36449925 </i>
   </energy>
  </scstep>
  <scstep>
   <time name="dav">    1.66    1.66</time>
   <time name="total">    1.74    1.74</time>
   <energy>
    <i name="e_fr_energy">    -60.34728723 </i>
    <i name="e_wo_entrp">    -60.34618267 </i>
    <i name="e_0_energy">    -60.34673495 </i>
   </energy>
  </scstep>
  <scstep>
   <time name="dav">    1.53    1.53</time>
   <time name="total">    1.61    1.61</time>
   <energy>
    <i name="e_fr_energy">    -60.34689043 </i>
    <i name="e_wo_entrp">    -60.34562766 </i>
    <i name="e_0_energy">    -60.34625905 </i>
   </energy>
  </scstep>
  <scstep>
   <time name="dav">    1.94    1.94</time>
   <time name="total">    2.02    2.03</time>
   <energy>
    <i name="e_fr_energy">    -60.34675854 </i>
    <i name="e_wo_entrp">    -60.34553464 </i>
    <i name="e_0_energy">    -60.34614659 </i>
   </energy>
  </scstep>
  <scstep>
   <time name="dav">    1.04    1.04</time>
   <time name="total">    1.06    1.06</time>
   <energy>
    <i name="alphaZ">    378.98542609 </i>
    <i name="ewald">  -5079.46922110 </i>
    <i name="hartreedc">  -1547.24924589 </i>
    <i name="XCdc">    206.92760000 </i>
    <i name="pawpsdc">   6134.79555703 </i>
    <i name="pawaedc">  -6155.26956044 </i>
    <i name="eentropy">     -0.00123402 </i>
    <i name="bandstr">   -685.30567627 </i>
    <i name="atom">   6686.23959825 </i>
    <i name="e_fr_energy">    -60.34675634 </i>
    <i name="e_wo_entrp">    -60.34552232 </i>
    <i name="e_0_energy">    -60.34613933 </i>
   </energy>
  </scstep>
  <structure>
   <crystal>
    <varray name="basis" >
     <v>       3.55536950       0.00000000       0.00000000 </v>
     <v>       0.00000000       7.72593201       0.00000000 </v>
     <v>       0.00000000       0.00000000       7.62597835 </v>
    </varray>
    <i name="volume">    209.47451453 </i>
    <varray name="rec_basis" >
     <v>       0.28126472       0.00000000      -0.00000000 </v>
     <v>       0.00000000       0.12943422       0.00000000 </v>
     <v>      -0.00000000       0.00000000       0.13113072 </v>
    </varray>
   </crystal>
   <varray name="positions" >
    <v>       0.99912106       0.00174035       0.75000000 </v>
    <v>       0.00087894       0.99825965       0.25000000 </v>
    <v>       0.99912106       0.49825965       0.25000000 </v>
    <v>       0.00087894       0.50174035       0.75000000 </v>
    <v>       0.50021048       0.75000000       0.50000000 </v>
    <v>       0.49978952       0.25000000       0.50000000 </v>
    <v>       0.49978952       0.25000000       0.00000000 </v>
    <v>       0.50021048       0.75000000      -0.00000000 </v>
    <v>       0.51267482       0.75192887       0.75000000 </v>
    <v>       0.48732518       0.24807113       0.25000000 </v>
    <v>       0.51267482       0.74807113       0.25000000 </v>
    <v>       0.48732518       0.25192887       0.75000000 </v>
   </varray>
  </structure>
  <varray name="forces" >
   <v>       0.01967417      -0.00754637       0.00000000 </v>
   <v>      -0.01967417       0.00754637      -0.00000000 </v>
   <v>       0.01967417       0.00754637       0.00000000 </v>
   <v>      -0.01967417      -0.00754637      -0.00000000 </v>
   <v>      -0.05112026       0.00000000      -0.00000000 </v>
   <v>       0.05112026      -0.00000000       0.00000000 </v>
   <v>       0.05112026      -0.00000000       0.00000000 </v>
   <v>      -0.05112026       0.00000000      -0.00000000 </v>
   <v>      -0.12708181      -0.01806472      -0.00000000 </v>
   <v>       0.12708181       0.01806472       0.00000000 </v>
   <v>      -0.12708181       0.01806472      -0.00000000 </v>
   <v>       0.12708181      -0.01806472       0.00000000 </v>
  </varray>
  <varray name="stress" >
   <v>      -1.85396261       0.00000000       0.00000000 </v>
   <v>       0.00000000      -0.39316393       0.00000000 </v>
   <v>       0.00000000       0.00000000      -1.52377751 </v>
  </varray>
  <energy>
   <i name="e_fr_energy">    -60.34675634 </i>
   <i name="e_wo_entrp">    -60.34613933 </i>
   <i name="e_0_energy">     -0.00123402 </i>
  </energy>
  <time name="totalsc">   10.98   11.00</time>
 </calculation>
 <calculation>
  <scstep>
   <time name="dav">    1.27    1.27</time>
   <time name="total">    1.35    1.35</time>
   <energy>
    <i name="alphaZ">    379.40177454 </i>
    <i name="ewald">  -5081.32659786 </i>
    <i name="hartreedc">  -1547.80796902 </i>
    <i name="XCdc">    207.03592970 </i>
    <i name="pawpsdc">   6135.00379587 </i>
    <i name="pawaedc">  -6155.47414682 </i>
    <i name="eentropy">     -0.00101197 </i>
    <i name="bandstr">   -683.42196045 </i>
    <i name="atom">   6686.23959825 </i>
    <i name="e_fr_energy">    -60.35058776 </i>
    <i name="e_wo_entrp">    -60.34957578 </i>
    <i name="e_0_energy">    -60.35008177 </i>
   </energy>
  </scstep>
  <scstep>
   <time name="dav">    1.81    1.81</time>
   <time name="total">    1.89    1.89</time>
   <energy>
    <i name="e_fr_energy">    -60.41303460 </i>
    <i name="e_wo_entrp">    -60.41129048 </i>
    <i name="e_0_energy">    -60.41216254 </i>
   </energy>
  </scstep>
  <scstep>
   <time name="dav">    1.66    1.66</time>
   <time name="total">    1.74    1.74</time>
   <energy>
    <i name="e_fr_energy">    -60.35093645 </i>
    <i name="e_wo_entrp">    -60.35005322 </i>
    <i name="e_0_energy">    -60.35049484 </i>
   </energy>
  </scstep>
  <scstep>
   <time name="dav">    1.72    1.72</time>
   <time name="total">    1.80    1.80</time>
   <energy>
    <i name="e_fr_energy">    -60.34923171 </i>
    <i name="e_wo_entrp">    -60.34795034 </i>
    <i name="e_0_energy">    -60.34859103 </i>
   </energy>
  </scstep>
  <scstep>
   <time name="dav">    2.04    2.04</time>
   <time name="total">    2.12    2.12</time>
   <energy>
    <i name="e_fr_energy">    -60.34876724 </i>
    <i name="e_wo_entrp">    -60.34755959 </i>
    <i name="e_0_energy">    -60.34816341 </i>
   </energy>
  </scstep>
  <scstep>
   <time name="dav">    1.47    1.47</time>
   <time name="total">    1.55    1.55</time>
   <energy>
    <i name="e_fr_energy">    -60.34875169 </i>
    <i name="e_wo_entrp">    -60.34752394 </i>
    <i name="e_0_energy">    -60.34813782 </i>
   </energy>
  </scstep>
  <scstep>
   <time name="dav">    1.01    1.01</time>
   <time name="total">    1.03    1.03</time>
   <energy>
    <i name="alphaZ">    379.40177454 </i>
    <i name="ewald">  -5081.32659786 </i>
    <i name="hartreedc">  -1546.36926958 </i>
    <i name="XCdc">    206.95443142 </i>
    <i name="pawpsdc">   6137.35372780 </i>
    <i name="pawaedc">  -6157.83946798 </i>
    <i name="eentropy">     -0.00122345 </i>
    <i name="bandstr">   -684.76172760 </i>
    <i name="atom">   6686.23959825 </i>
    <i name="e_fr_energy">    -60.34875445 </i>
    <i name="e_wo_entrp">    -60.34753100 </i>
    <i name="e_0_energy">    -60.34814272 </i>
   </energy>
  </scstep>
  <structure>
   <crystal>
    <varray name="basis" >
     <v>       3.55344630       0.00000000       0.00000000 </v>
     <v>       0.00000000       7.72480662       0.00000000 </v>
     <v>       0.00000000       0.00000000       7.62284292 </v>
    </varray>
    <i name="volume">    209.24464109 </i>
    <varray name="rec_basis" >
     <v>       0.28141694       0.00000000      -0.00000000 </v>
     <v>       0.00000000       0.12945308       0.00000000 </v>
     <v>      -0.00000000       0.00000000       0.13118465 </v>
    </varray>
   </crystal>
   <varray name="positions" >
    <v>       0.99925855       0.00171521       0.75000000 </v>
    <v>       0.00074145       0.99828479       0.25000000 </v>
    <v>       0.99925855       0.49828479       0.25000000 </v>
    <v>       0.00074145       0.50171521       0.75000000 </v>
    <v>       0.49984957       0.75000000       0.50000000 </v>
    <v>       0.50015043       0.25000000       0.50000000 </v>
    <v>       0.50015043       0.25000000       0.00000000 </v>
    <v>       0.49984957       0.75000000      -0.00000000 </v>
    <v>       0.51178446       0.75187102       0.75000000 </v>
    <v>       0.48821554       0.24812898       0.25000000 </v>
    <v>       0.51178446       0.74812898       0.25000000 </v>
    <v>       0.48821554       0.25187102       0.75000000 </v>
   </varray>
  </structure>
  <varray name="forces" >
   <v>       0.01669625      -0.00914376       0.00000000 </v>
   <v>      -0.01669625       0.00914376      -0.00000000 </v>
   <v>       0.01669625       0.00914376       0.00000000 </v>
   <v>      -0.01669625      -0.00914376      -0.00000000 </v>
   <v>      -0.04643258       0.00000000      -0.00000000 </v>
   <v>       0.04643258       0.00000000       0.00000000 </v>
   <v>       0.04643258      -0.00000000       0.00000000 </v>
   <v>      -0.04643258       0.00000000      -0.00000000 </v>
   <v>      -0.11646397      -0.01595761      -0.00000000 </v>
   <v>       0.11646397       0.01595761       0.00000000 </v>
   <v>      -0.11646397       0.01595761      -0.00000000 </v>
   <v>       0.11646397      -0.01595761       0.00000000 </v>
  </varray>
  <varray name="stress" >
   <v>      -1.76328513       0.00000000       0.00000000 </v>
   <v>       0.00000000      -0.38211258       0.00000000 </v>
   <v>       0.00000000       0.00000000      -0.15664424 </v>
  </varray>
  <energy>
   <i name="e_fr_energy">    -60.34875445 </i>
   <i name="e_wo_entrp">    -60.34814272 </i>
   <i name="e_0_energy">     -0.00122345 </i>
  </energy>
  <time name="totalsc">   12.70   12.71</time>
 </calculation>
 <calculation>
  <scstep>
   <time name="dav">    1.27    1.27</time>
   <time name="total">    1.35    1.35</time>
   <energy>
    <i name="alphaZ">    379.68888566 </i>
    <i name="ewald">  -5082.65655706 </i>
    <i name="hartreedc">  -1546.74648465 </i>
    <i name="XCdc">    207.02931687 </i>
    <i name="pawpsdc">   6137.77898943 </i>
    <i name="pawaedc">  -6158.25047500 </i>
    <i name="eentropy">     -0.00109887 </i>
    <i name="bandstr">   -683.43341421 </i>
    <i name="atom">   6686.23959825 </i>
    <i name="e_fr_energy">    -60.35123956 </i>
    <i name="e_wo_entrp">    -60.35014070 </i>
    <i name="e_0_energy">    -60.35069013 </i>
   </energy>
  </scstep>
  <scstep>
   <time name="dav">    1.80    1.80</time>
   <time name="total">    1.88    1.88</time>
   <energy>
    <i name="e_fr_energy">    -60.38515100 </i>
    <i name="e_wo_entrp">    -60.38341629 </i>
    <i name="e_0_energy">    -60.38428365 </i>
   </energy>
  </scstep>
  <scstep>
   <time name="dav">    1.67    1.67</time>
   <time name="total">    1.75    1.75</time>
   <energy>
    <i name="e_fr_energy">    -60.35117439 </i>
    <i name="e_wo_entrp">    -60.35015930 </i>
    <i name="e_0_energy">    -60.35066685 </i>
   </energy>
  </scstep>
  <scstep>
   <time name="dav">    1.59    1.59</time>
   <time name="total">    1.67    1.68</time>
   <energy>
    <i name="e_fr_energy">    -60.35050540 </i>
    <i name="e_wo_entrp">    -60.34924845 </i>
    <i name="e_0_energy">    -60.34987692 </i>
   </energy>
  </scstep>
  <scstep>
   <time name="dav">    2.02    2.02</time>
   <time name="total">    2.10    2.10</time>
   <energy>
    <i name="e_fr_energy">    -60.35030179 </i>
    <i name="e_wo_entrp">    -60.34909462 </i>
    <i name="e_0_energy">    -60.34969821 </i>
   </energy>
  </scstep>
  <scstep>
   <time name="dav">    1.19    1.19</time>
   <time name="total">    1.20    1.20</time>
   <energy>
    <i name="alphaZ">    379.68888566 </i>
    <i name="ewald">  -5082.65655706 </i>
    <i name="hartreedc">  -1545.74006105 </i>
    <i name="XCdc">    206.97243747 </i>
    <i name="pawpsdc">   6138.78737714 </i>
    <i name="pawaedc">  -6159.27014585 </i>
    <i name="eentropy">     -0.00122133 </i>
    <i name="bandstr">   -684.37061015 </i>
    <i name="atom">   6686.23959825 </i>
    <i name="e_fr_energy">    -60.35029693 </i>
    <i name="e_wo_entrp">    -60.34907559 </i>
    <i name="e_0_energy">    -60.34968626 </i>
   </energy>
  </scstep>
  <structure>
   <crystal>
    <varray name="basis" >
     <v>       3.55175835       0.00000000       0.00000000 </v>
     <v>       0.00000000       7.72388789       0.00000000 </v>
     <v>       0.00000000       0.00000000       7.62160516 </v>
    </varray>
    <i name="volume">    209.08641560 </i>
    <varray name="rec_basis" >
     <v>       0.28155069       0.00000000      -0.00000000 </v>
     <v>       0.00000000       0.12946848       0.00000000 </v>
     <v>      -0.00000000       0.00000000       0.13120596 </v>
    </varray>
   </crystal>
   <varray name="positions" >
    <v>       0.99937450       0.00168898       0.75000000 </v>
    <v>       0.00062550       0.99831102       0.25000000 </v>
    <v>       0.99937450       0.49831102       0.25000000 </v>
    <v>       0.00062550       0.50168898       0.75000000 </v>
    <v>       0.49953352       0.75000000       0.50000000 </v>
    <v>       0.50046648       0.25000000       0.50000000 </v>
    <v>       0.50046648       0.25000000       0.00000000 </v>
    <v>       0.49953352       0.75000000      -0.00000000 </v>
    <v>       0.51099817       0.75182097       0.75000000 </v>
    <v>       0.48900183       0.24817903       0.25000000 </v>
    <v>       0.51099817       0.74817903       0.25000000 </v>
    <v>       0.48900183       0.25182097       0.75000000 </v>
   </varray>
  </structure>
  <varray name="forces" >
   <v>       0.01414285      -0.01018298       0.00000000 </v>
   <v>      -0.01414285       0.01018298      -0.00000000 </v>
   <v>       0.01414285       0.01018298       0.00000000 </v>
   <v>      -0.01414285      -0.01018298      -0.00000000 </v>
   <v>      -0.04174094       0.00000000      -0.00000000 </v>
   <v>       0.04174094       0.00000000       0.00000000 </v>
   <v>       0.04174094       0.00000000       0.00000000 </v>
   <v>      -0.04174094       0.00000000      -0.00000000 </v>
   <v>      -0.10728330      -0.01441340      -0.00000000 </v>
   <v>       0.10728330       0.01441340       0.00000000 </v>
   <v>      -0.10728330       0.01441340      -0.00000000 </v>
   <v>       0.10728330      -0.01441340       0.00000000 </v>
  </varray>
  <varray name="stress" >
   <v>      -0.70136209       0.00000000      -0.00000000 </v>
   <v>       0.00000000       0.63017903       0.00000000 </v>
   <v>      -0.00000000       0.00000000       1.39233398 </v>
  </varray>
  <energy>
   <i name="e_fr_energy">    -60.35029693 </i>
   <i name="e_wo_entrp">    -60.34968626 </i>
   <i name="e_0_energy">     -0.00122133 </i>
  </energy>
  <time name="totalsc">   11.19   11.21</time>
 </calculation>
 <calculation>
  <scstep>
   <time name="dav">    1.51    1.51</time>
   <time name="total">    1.59    1.59</time>
   <energy>
    <i name="alphaZ">    379.57014006 </i>
    <i name="ewald">  -5082.13814337 </i>
    <i name="hartreedc">  -1545.58595590 </i>
    <i name="XCdc">    206.94169277 </i>
    <i name="pawpsdc">   6139.10228977 </i>
    <i name="pawaedc">  -6159.57571287 </i>
    <i name="eentropy">     -0.00120659 </i>
    <i name="bandstr">   -684.90297130 </i>
    <i name="atom">   6686.23959825 </i>
    <i name="e_fr_energy">    -60.35026918 </i>
    <i name="e_wo_entrp">    -60.34906259 </i>
    <i name="e_0_energy">    -60.34966588 </i>
   </energy>
  </scstep>
  <scstep>
   <time name="dav">    1.85    1.86</time>
   <time name="total">    1.93    1.93</time>
   <energy>
    <i name="e_fr_energy">    -60.35458746 </i>
    <i name="e_wo_entrp">    -60.35378940 </i>
    <i name="e_0_energy">    -60.35418843 </i>
   </energy>
  </scstep>
  <scstep>
   <time name="dav">    1.61    1.61</time>
   <time name="total">    1.68    1.68</time>
   <energy>
    <i name="e_fr_energy">    -60.35010897 </i>
    <i name="e_wo_entrp">    -60.34888107 </i>
    <i name="e_0_energy">    -60.34949502 </i>
   </energy>
  </scstep>
  <scstep>
   <time name="dav">    1.45    1.45</time>
   <time name="total">    1.52    1.52</time>
   <energy>
    <i name="e_fr_energy">    -60.35013245 </i>
    <i name="e_wo_entrp">    -60.34891284 </i>
    <i name="e_0_energy">    -60.34952264 </i>
   </energy>
  </scstep>
  <scstep>
   <time name="dav">    1.31    1.31</time>
   <time name="total">    1.33    1.33</time>
   <energy>
    <i name="alphaZ">    379.57014006 </i>
    <i name="ewald">  -5082.13814337 </i>
    <i name="hartreedc">  -1546.03776489 </i>
    <i name="XCdc">    206.96690460 </i>
    <i name="pawpsdc">   6139.02742848 </i>
    <i name="pawaedc">  -6159.46056380 </i>
    <i name="eentropy">     -0.00122286 </i>
    <i name="bandstr">   -684.51650537 </i>
    <i name="atom">   6686.23959825 </i>
    <i name="e_fr_energy">    -60.35012889 </i>
    <i name="e_wo_entrp">    -60.34890604 </i>
    <i name="e_0_energy">    -60.34951746 </i>
   </energy>
  </scstep>
  <structure>
   <crystal>
    <varray name="basis" >
     <v>       3.55214203       0.00000000       0.00000000 </v>
     <v>       0.00000000       7.72441374       0.00000000 </v>
     <v>       0.00000000       0.00000000       7.62264706 </v>
    </varray>
    <i name="volume">    209.15182667 </i>
    <varray name="rec_basis" >
     <v>       0.28152027       0.00000000      -0.00000000 </v>
     <v>       0.00000000       0.12945966       0.00000000 </v>
     <v>      -0.00000000       0.00000000       0.13118802 </v>
    </varray>
   </crystal>
   <varray name="positions" >
    <v>       0.99935741       0.00169047       0.75000000 </v>
    <v>       0.00064259       0.99830953       0.25000000 </v>
    <v>       0.99935741       0.49830953       0.25000000 </v>
    <v>       0.00064259       0.50169047       0.75000000 </v>
    <v>       0.49957498       0.75000000       0.50000000 </v>
    <v>       0.50042502       0.25000000       0.50000000 </v>
    <v>       0.50042502       0.25000000       0.00000000 </v>
    <v>       0.49957498       0.75000000      -0.00000000 </v>
    <v>       0.51109587       0.75182753       0.75000000 </v>
    <v>       0.48890413       0.24817247       0.25000000 </v>
    <v>       0.51109587       0.74817247       0.25000000 </v>
    <v>       0.48890413       0.25182753       0.75000000 </v>
   </varray>
  </structure>
  <varray name="forces" >
   <v>       0.01441053      -0.00995835       0.00000000 </v>
   <v>      -0.01441053       0.00995835      -0.00000000 </v>
   <v>       0.01441053       0.00995835       0.00000000 </v>
   <v>      -0.01441053      -0.00995835      -0.00000000 </v>
   <v>      -0.04121630      -0.00000000      -0.00000000 </v>
   <v>       0.04121630      -0.00000000       0.00000000 </v>
   <v>       0.04121630      -0.00000000       0.00000000 </v>
   <v>      -0.04121630      -0.00000000      -0.00000000 </v>
   <v>      -0.10908443      -0.01473454      -0.00000000 </v>
   <v>       0.10908443       0.01473454       0.00000000 </v>
   <v>      -0.10908443       0.01473454      -0.00000000 </v>
   <v>       0.10908443      -0.01473454       0.00000000 </v>
  </varray>
  <varray name="stress" >
   <v>      -0.69397533       0.00000000       0.00000000 </v>
   <v>       0.00000000       0.46425572       0.00000000 </v>
   <v>       0.00000000       0.00000000       0.66735447 </v>
  </varray>
  <energy>
   <i name="e_fr_energy">    -60.35012889 </i>
   <i name="e_wo_entrp">    -60.34951746 </i>
   <i name="e_0_energy">     -0.00122286 </i>
  </energy>
  <time name="totalsc">    9.30    9.30</time>
 </calculation>
 <calculation>
  <scstep>
   <time name="dav">    1.28    1.28</time>
   <time name="total">    1.36    1.36</time>
   <energy>
    <i name="alphaZ">    379.48243750 </i>
    <i name="ewald">  -5081.76705244 </i>
    <i name="hartreedc">  -1545.90723175 </i>
    <i name="XCdc">    206.94382795 </i>
    <i name="pawpsdc">   6138.94131658 </i>
    <i name="pawaedc">  -6159.37594525 </i>
    <i name="eentropy">     -0.00121568 </i>
    <i name="bandstr">   -684.90632946 </i>
    <i name="atom">   6686.23959825 </i>
    <i name="e_fr_energy">    -60.35059429 </i>
    <i name="e_wo_entrp">    -60.34937861 </i>
    <i name="e_0_energy">    -60.34998645 </i>
   </energy>
  </scstep>
  <scstep>
   <time name="dav">    1.68    1.68</time>
   <time name="total">    1.76    1.76</time>
   <energy>
    <i name="e_fr_energy">    -60.35239812 </i>
    <i name="e_wo_entrp">    -60.35147103 </i>
    <i name="e_0_energy">    -60.35193457 </i>
   </energy>
  </scstep>
  <scstep>
   <time name="dav">    1.61    1.61</time>
   <time name="total">    1.69    1.69</time>
   <energy>
    <i name="e_fr_energy">    -60.35052387 </i>
    <i name="e_wo_entrp">    -60.34929522 </i>
    <i name="e_0_energy">    -60.34990955 </i>
   </energy>
  </scstep>
  <scstep>
   <time name="dav">    1.43    1.43</time>
   <time name="total">    1.51    1.51</time>
   <energy>
    <i name="e_fr_energy">    -60.35053067 </i>
    <i name="e_wo_entrp">    -60.34931010 </i>
    <i name="e_0_energy">    -60.34992038 </i>
   </energy>
  </scstep>
  <scstep>
   <time name="dav">    1.05    1.05</time>
   <time name="total">    1.06    1.06</time>
   <energy>
    <i name="alphaZ">    379.48243750 </i>
    <i name="ewald">  -5081.76705244 </i>
    <i name="hartreedc">  -1546.21293881 </i>
    <i name="XCdc">    206.96108915 </i>
    <i name="pawpsdc">   6138.42429835 </i>
    <i name="pawaedc">  -6158.85481869 </i>
    <i name="eentropy">     -0.00122340 </i>
    <i name="bandstr">   -684.62191861 </i>
    <i name="atom">   6686.23959825 </i>
    <i name="e_fr_energy">    -60.35052869 </i>
[...]
        <r>  0.0000  0.0000  0.0000 </r>
        <r>  0.0000  0.0000  0.0001 </r>
        <r>  0.0000  0.0002  0.0000 </r>
        <r>  0.0000  0.0002  0.0000 </r>
        <r>  0.0000  0.0005  0.0000 </r>
        <r>  0.0000  0.0000  0.0000 </r>
       </set>
       <set comment="band 17">
        <r>  0.0001  0.0028  0.0030 </r>
        <r>  0.0001  0.0021  0.0138 </r>
        <r>  0.0005  0.0099  0.0024 </r>
        <r>  0.0001  0.0022  0.0041 </r>
        <r>  0.0536  0.0042  0.0612 </r>
        <r>  0.0111  0.0106  0.0128 </r>
        <r>  0.0361  0.0033  0.0412 </r>
        <r>  0.0138  0.0158  0.0158 </r>
        <r>  0.0220  0.0089  0.0000 </r>
        <r>  0.0654  0.0041  0.0000 </r>
        <r>  0.1988  0.0012  0.0000 </r>
        <r>  0.0893  0.0030  0.0000 </r>
       </set>
       <set comment="band 18">
        <r>  0.0003  0.0061  0.0040 </r>
        <r>  0.0003  0.0058  0.0030 </r>
        <r>  0.0001  0.0022  0.0080 </r>
        <r>  0.0001  0.0029  0.0084 </r>
        <r>  0.0281  0.0055  0.0321 </r>
        <r>  0.0119  0.0165  0.0136 </r>
        <r>  0.0560  0.0036  0.0640 </r>
        <r>  0.0186  0.0083  0.0214 </r>
        <r>  0.0120  0.0064  0.0000 </r>
        <r>  0.0344  0.0085  0.0000 </r>
        <r>  0.1411  0.0006  0.0000 </r>
        <r>  0.1881  0.0017  0.0000 </r>
       </set>
       <set comment="band 19">
        <r>  0.0000  0.0005  0.0114 </r>
        <r>  0.0004  0.0066  0.0022 </r>
        <r>  0.0001  0.0019  0.0095 </r>
        <r>  0.0004  0.0080  0.0002 </r>
        <r>  0.0041  0.0099  0.0047 </r>
        <r>  0.0642  0.0039  0.0734 </r>
        <r>  0.0128  0.0189  0.0147 </r>
        <r>  0.0335  0.0013  0.0382 </r>
        <r>  0.0979  0.0012  0.0000 </r>
        <r>  0.1633  0.0041  0.0000 </r>
        <r>  0.0251  0.0044  0.0000 </r>
        <r>  0.0891  0.0074  0.0000 </r>
       </set>
       <set comment="band 20">
        <r>  0.0004  0.0076  0.0049 </r>
        <r>  0.0001  0.0025  0.0044 </r>
        <r>  0.0002  0.0031  0.0035 </r>
        <r>  0.0002  0.0038  0.0105 </r>
        <r>  0.0289  0.0144  0.0330 </r>
        <r>  0.0274  0.0029  0.0312 </r>
        <r>  0.0097  0.0081  0.0111 </r>
        <r>  0.0486  0.0086  0.0557 </r>
        <r>  0.2436  0.0007  0.0000 </r>
        <r>  0.1124  0.0005  0.0000 </r>
        <r>  0.0105  0.0109  0.0000 </r>
        <r>  0.0090  0.0051  0.0000 </r>
       </set>
       <set comment="band 21">
        <r>  0.0032  0.0006  0.0021 </r>
        <r>  0.0181  0.0017  0.0126 </r>
        <r>  0.0024  0.0128  0.0036 </r>
        <r>  0.0005  0.0022  0.0009 </r>
        <r>  0.0000  0.0032  0.0709 </r>
        <r>  0.0001  0.0048  0.1533 </r>
        <r>  0.0002  0.0139  0.0568 </r>
        <r>  0.0001  0.0064  0.0391 </r>
        <r>  0.0001  0.0171  0.0000 </r>
        <r>  0.0007  0.0956  0.0000 </r>
        <r>  0.0002  0.0366  0.0000 </r>
        <r>  0.0001  0.0090  0.0000 </r>
       </set>
       <set comment="band 22">
        <r>  0.0091  0.0042  0.0073 </r>
        <r>  0.0019  0.0053  0.0022 </r>
        <r>  0.0073  0.0014  0.0051 </r>
        <r>  0.0059  0.0065  0.0046 </r>
        <r>  0.0002  0.0139  0.0387 </r>
        <r>  0.0001  0.0074  0.0464 </r>
        <r>  0.0001  0.0039  0.0823 </r>
        <r>  0.0001  0.0031  0.1527 </r>
        <r>  0.0003  0.0419  0.0000 </r>
        <r>  0.0000  0.0077  0.0000 </r>
        <r>  0.0004  0.0531  0.0000 </r>
        <r>  0.0004  0.0556  0.0000 </r>
       </set>
       <set comment="band 23">
        <r>  0.0070  0.0062  0.0055 </r>
        <r>  0.0040  0.0034  0.0030 </r>
        <r>  0.0046  0.0029  0.0038 </r>
        <r>  0.0087  0.0049  0.0069 </r>
        <r>  0.0001  0.0072  0.0340 </r>
        <r>  0.0002  0.0129  0.0642 </r>
        <r>  0.0001  0.0055  0.1420 </r>
        <r>  0.0000  0.0028  0.0799 </r>
        <r>  0.0001  0.0131  0.0000 </r>
        <r>  0.0001  0.0142  0.0000 </r>
        <r>  0.0003  0.0427  0.0000 </r>
        <r>  0.0006  0.0883  0.0000 </r>
       </set>
       <set comment="band 24">
        <r>  0.0050  0.0064  0.0044 </r>
        <r>  0.0003  0.0070  0.0013 </r>
        <r>  0.0099  0.0003  0.0067 </r>
        <r>  0.0091  0.0036  0.0068 </r>
        <r>  0.0001  0.0040  0.1765 </r>
        <r>  0.0001  0.0032  0.0562 </r>
        <r>  0.0001  0.0050  0.0390 </r>
        <r>  0.0003  0.0161  0.0485 </r>
        <r>  0.0006  0.0862  0.0000 </r>
        <r>  0.0003  0.0408  0.0000 </r>
        <r>  0.0002  0.0258  0.0000 </r>
        <r>  0.0000  0.0054  0.0000 </r>
       </set>
       <set comment="band 25">
        <r>  0.0000  0.0082  0.0047 </r>
        <r>  0.0000  0.0049  0.0084 </r>
        <r>  0.0000  0.0058  0.0074 </r>
        <r>  0.0000  0.0036  0.0126 </r>
        <r>  0.0003  0.0043  0.1501 </r>
        <r>  0.0005  0.0032  0.0785 </r>
        <r>  0.0005  0.0022  0.1105 </r>
        <r>  0.0003  0.0043  0.1482 </r>
        <r>  0.0000  0.0221  0.0000 </r>
        <r>  0.0001  0.0019  0.0000 </r>
        <r>  0.0000  0.0672  0.0000 </r>
        <r>  0.0000  0.0536  0.0000 </r>
       </set>
       <set comment="band 26">
        <r>  0.0000  0.0029  0.0059 </r>
        <r>  0.0001  0.0122  0.0045 </r>
        <r>  0.0000  0.0034  0.0183 </r>
        <r>  0.0000  0.0040  0.0044 </r>
        <r>  0.0006  0.0019  0.1437 </r>
        <r>  0.0002  0.0050  0.1018 </r>
        <r>  0.0004  0.0029  0.1752 </r>
        <r>  0.0003  0.0042  0.0666 </r>
        <r>  0.0000  0.0412  0.0000 </r>
        <r>  0.0000  0.0790  0.0000 </r>
        <r>  0.0001  0.0209  0.0000 </r>
        <r>  0.0000  0.0036  0.0000 </r>
       </set>
       <set comment="band 27">
        <r>  0.0000  0.0032  0.0213 </r>
        <r>  0.0000  0.0007  0.0067 </r>
        <r>  0.0000  0.0045  0.0011 </r>
        <r>  0.0001  0.0141  0.0040 </r>
        <r>  0.0001  0.0014  0.1394 </r>
        <r>  0.0001  0.0011  0.2572 </r>
        <r>  0.0004  0.0075  0.0409 </r>
        <r>  0.0009  0.0040  0.0499 </r>
        <r>  0.0001  0.0405  0.0000 </r>
        <r>  0.0000  0.0186  0.0000 </r>
        <r>  0.0000  0.0151  0.0000 </r>
        <r>  0.0000  0.0705  0.0000 </r>
       </set>
       <set comment="band 28">
        <r>  0.0000  0.0082  0.0012 </r>
        <r>  0.0000  0.0048  0.0135 </r>
        <r>  0.0000  0.0088  0.0063 </r>
        <r>  0.0000  0.0008  0.0121 </r>
        <r>  0.0005  0.0064  0.0541 </r>
        <r>  0.0008  0.0047  0.0499 </r>
        <r>  0.0002  0.0014  0.1607 </r>
        <r>  0.0001  0.0015  0.2226 </r>
        <r>  0.0000  0.0410  0.0000 </r>
        <r>  0.0001  0.0452  0.0000 </r>
        <r>  0.0000  0.0415  0.0000 </r>
        <r>  0.0000  0.0169  0.0000 </r>
       </set>
       <set comment="band 29">
        <r>  0.0001  0.0008  0.0077 </r>
        <r>  0.0000  0.0004  0.0072 </r>
        <r>  0.0000  0.0009  0.0073 </r>
        <r>  0.0001  0.0015  0.0072 </r>
        <r>  0.0137  0.0219  0.1669 </r>
        <r>  0.0067  0.0180  0.0826 </r>
        <r>  0.0040  0.0304  0.0464 </r>
        <r>  0.0049  0.0620  0.0570 </r>
        <r>  0.0141  0.0819  0.0000 </r>
        <r>  0.0004  0.0862  0.0000 </r>
        <r>  0.0157  0.0735  0.0000 </r>
        <r>  0.0167  0.0030  0.0000 </r>
       </set>
       <set comment="band 30">
        <r>  0.0000  0.0006  0.0079 </r>
        <r>  0.0001  0.0017  0.0060 </r>
        <r>  0.0001  0.0010  0.0091 </r>
        <r>  0.0000  0.0002  0.0064 </r>
        <r>  0.0029  0.0269  0.0340 </r>
        <r>  0.0064  0.0636  0.0747 </r>
        <r>  0.0141  0.0287  0.1707 </r>
        <r>  0.0058  0.0131  0.0735 </r>
        <r>  0.0076  0.0337  0.0000 </r>
        <r>  0.0314  0.0089  0.0000 </r>
        <r>  0.0064  0.0400  0.0000 </r>
        <r>  0.0014  0.1619  0.0000 </r>
       </set>
       <set comment="band 31">
        <r>  0.0001  0.0003  0.0093 </r>
        <r>  0.0001  0.0003  0.0064 </r>
        <r>  0.0000  0.0012  0.0082 </r>
        <r>  0.0000  0.0017  0.0055 </r>
        <r>  0.0007  0.0689  0.0086 </r>
        <r>  0.0023  0.0494  0.0257 </r>
        <r>  0.0110  0.0103  0.1330 </r>
        <r>  0.0153  0.0036  0.1857 </r>
        <r>  0.0084  0.0897  0.0000 </r>
        <r>  0.0028  0.0947  0.0000 </r>
        <r>  0.0173  0.0445  0.0000 </r>
        <r>  0.0184  0.0156  0.0000 </r>
       </set>
       <set comment="band 32">
        <r>  0.0000  0.0019  0.0045 </r>
        <r>  0.0000  0.0010  0.0098 </r>
        <r>  0.0001  0.0005  0.0048 </r>
        <r>  0.0001  0.0001  0.0103 </r>
        <r>  0.0120  0.0146  0.1435 </r>
        <r>  0.0139  0.0013  0.1700 </r>
        <r>  0.0001  0.0628  0.0028 </r>
        <r>  0.0033  0.0535  0.0367 </r>
        <r>  0.0168  0.0393  0.0000 </r>
        <r>  0.0123  0.0547  0.0000 </r>
        <r>  0.0074  0.0866  0.0000 </r>
        <r>  0.0104  0.0640  0.0000 </r>
       </set>
       <set comment="band 33">
        <r>  0.0004  0.0004  0.0006 </r>
        <r>  0.0000  0.0006  0.0035 </r>
        <r>  0.0008  0.0031  0.0196 </r>
        <r>  0.0018  0.0025  0.0107 </r>
        <r>  0.0021  0.0042  0.0596 </r>
        <r>  0.0016  0.0025  0.0673 </r>
        <r>  0.0117  0.0082  0.2096 </r>
        <r>  0.0245  0.0051  0.2671 </r>
        <r>  0.0022  0.0008  0.0000 </r>
        <r>  0.0005  0.0009  0.0000 </r>
        <r>  0.0009  0.0014  0.0000 </r>
        <r>  0.0012  0.0004  0.0000 </r>
       </set>
       <set comment="band 34">
        <r>  0.0013  0.0019  0.0091 </r>
        <r>  0.0007  0.0024  0.0144 </r>
        <r>  0.0008  0.0008  0.0019 </r>
        <r>  0.0001  0.0014  0.0090 </r>
        <r>  0.0137  0.0074  0.2139 </r>
        <r>  0.0212  0.0057  0.2482 </r>
        <r>  0.0033  0.0038  0.0724 </r>
        <r>  0.0017  0.0032  0.0690 </r>
        <r>  0.0008  0.0008  0.0000 </r>
        <r>  0.0014  0.0010  0.0000 </r>
        <r>  0.0012  0.0007  0.0000 </r>
        <r>  0.0015  0.0010  0.0000 </r>
       </set>
       <set comment="band 35">
        <r>  0.0013  0.0022  0.0101 </r>
        <r>  0.0008  0.0025  0.0148 </r>
        <r>  0.0003  0.0011  0.0055 </r>
        <r>  0.0005  0.0009  0.0040 </r>
        <r>  0.0043  0.0035  0.0988 </r>
        <r>  0.0062  0.0045  0.1001 </r>
        <r>  0.0198  0.0050  0.2247 </r>
        <r>  0.0096  0.0071  0.1799 </r>
        <r>  0.0013  0.0003  0.0000 </r>
        <r>  0.0015  0.0011  0.0000 </r>
        <r>  0.0004  0.0009  0.0000 </r>
        <r>  0.0016  0.0011  0.0000 </r>
       </set>
       <set comment="band 36">
        <r>  0.0000  0.0021  0.0147 </r>
        <r>  0.0014  0.0011  0.0018 </r>
        <r>  0.0010  0.0016  0.0074 </r>
        <r>  0.0006  0.0018  0.0107 </r>
        <r>  0.0198  0.0050  0.2312 </r>
        <r>  0.0109  0.0074  0.1879 </r>
        <r>  0.0051  0.0031  0.0968 </r>
        <r>  0.0041  0.0045  0.0876 </r>
        <r>  0.0004  0.0015  0.0000 </r>
        <r>  0.0015  0.0005  0.0000 </r>
        <r>  0.0023  0.0004  0.0000 </r>
        <r>  0.0005  0.0010  0.0000 </r>
       </set>
       <set comment="band 37">
        <r>  0.0016  0.0013  0.0043 </r>
        <r>  0.0004  0.0021  0.0078 </r>
        <r>  0.0006  0.0008  0.0033 </r>
        <r>  0.0004  0.0013  0.0031 </r>
        <r>  0.0047  0.0019  0.3082 </r>
        <r>  0.0042  0.0020  0.3316 </r>
        <r>  0.0009  0.0006  0.0596 </r>
        <r>  0.0006  0.0008  0.0698 </r>
        <r>  0.0002  0.0003  0.0000 </r>
        <r>  0.0000  0.0002  0.0000 </r>
        <r>  0.0002  0.0002  0.0000 </r>
        <r>  0.0003  0.0002  0.0000 </r>
       </set>
       <set comment="band 38">
        <r>  0.0007  0.0025  0.0093 </r>
        <r>  0.0020  0.0016  0.0055 </r>
        <r>  0.0001  0.0009  0.0017 </r>
        <r>  0.0003  0.0004  0.0018 </r>
        <r>  0.0007  0.0007  0.0681 </r>
        <r>  0.0008  0.0007  0.0626 </r>
        <r>  0.0045  0.0020  0.3177 </r>
        <r>  0.0045  0.0019  0.3209 </r>
        <r>  0.0002  0.0002  0.0000 </r>
        <r>  0.0003  0.0003  0.0000 </r>
        <r>  0.0001  0.0003  0.0000 </r>
        <r>  0.0000  0.0003  0.0000 </r>
       </set>
       <set comment="band 39">
        <r>  0.0001  0.0010  0.0023 </r>
        <r>  0.0004  0.0005  0.0020 </r>
        <r>  0.0007  0.0023  0.0085 </r>
        <r>  0.0018  0.0016  0.0056 </r>
        <r>  0.0011  0.0010  0.1155 </r>
        <r>  0.0015  0.0009  0.0957 </r>
        <r>  0.0035  0.0019  0.2945 </r>
        <r>  0.0044  0.0017  0.2637 </r>
        <r>  0.0003  0.0002  0.0000 </r>
        <r>  0.0002  0.0002  0.0000 </r>
        <r>  0.0000  0.0002  0.0000 </r>
        <r>  0.0001  0.0003  0.0000 </r>
       </set>
       <set comment="band 40">
        <r>  0.0006  0.0007  0.0025 </r>
        <r>  0.0002  0.0013  0.0030 </r>
        <r>  0.0017  0.0014  0.0049 </r>
        <r>  0.0006  0.0022  0.0079 </r>
        <r>  0.0039  0.0018  0.2775 </r>
        <r>  0.0039  0.0018  0.2794 </r>
        <r>  0.0015  0.0009  0.0975 </r>
        <r>  0.0010  0.0010  0.1149 </r>
        <r>  0.0000  0.0003  0.0000 </r>
        <r>  0.0001  0.0003  0.0000 </r>
        <r>  0.0003  0.0002  0.0000 </r>
        <r>  0.0002  0.0002  0.0000 </r>
       </set>
       <set comment="band 41">
        <r>  0.0000  0.0033  0.0094 </r>
        <r>  0.0004  0.0013  0.0229 </r>
        <r>  0.0016  0.0032  0.0020 </r>
        <r>  0.0039  0.0013  0.0055 </r>
        <r>  0.0044  0.0276  0.1320 </r>
        <r>  0.0032  0.0204  0.1107 </r>
        <r>  0.0006  0.0046  0.1308 </r>
        <r>  0.0009  0.0065  0.1733 </r>
        <r>  0.0002  0.0048  0.0000 </r>
        <r>  0.0000  0.0015  0.0000 </r>
        <r>  0.0002  0.0045  0.0000 </r>
        <r>  0.0003  0.0053  0.0000 </r>
       </set>
       <set comment="band 42">
        <r>  0.0013  0.0016  0.0158 </r>
        <r>  0.0016  0.0029  0.0043 </r>
        <r>  0.0025  0.0016  0.0095 </r>
        <r>  0.0005  0.0029  0.0102 </r>
        <r>  0.0004  0.0033  0.1378 </r>
        <r>  0.0011  0.0078  0.1663 </r>
        <r>  0.0041  0.0260  0.1367 </r>
        <r>  0.0035  0.0220  0.1060 </r>
        <r>  0.0002  0.0038  0.0000 </r>
        <r>  0.0004  0.0075  0.0000 </r>
        <r>  0.0001  0.0031  0.0000 </r>
        <r>  0.0000  0.0017  0.0000 </r>
       </set>
       <set comment="band 43">
        <r>  0.0008  0.0030  0.0079 </r>
        <r>  0.0028  0.0016  0.0088 </r>
        <r>  0.0012  0.0030  0.0060 </r>
        <r>  0.0011  0.0015  0.0171 </r>
        <r>  0.0014  0.0094  0.1680 </r>
        <r>  0.0012  0.0081  0.1250 </r>
        <r>  0.0027  0.0171  0.1175 </r>
        <r>  0.0039  0.0246  0.1363 </r>
        <r>  0.0002  0.0049  0.0000 </r>
        <r>  0.0003  0.0059  0.0000 </r>
        <r>  0.0002  0.0044  0.0000 </r>
        <r>  0.0000  0.0010  0.0000 </r>
       </set>
       <set comment="band 44">
        <r>  0.0037  0.0012  0.0067 </r>
        <r>  0.0011  0.0033  0.0038 </r>
        <r>  0.0006  0.0012  0.0223 </r>
        <r>  0.0004  0.0034  0.0070 </r>
        <r>  0.0029  0.0187  0.1090 </r>
        <r>  0.0036  0.0229  0.1448 </r>
        <r>  0.0017  0.0115  0.1618 </r>
        <r>  0.0009  0.0060  0.1312 </r>
        <r>  0.0001  0.0026  0.0000 </r>
        <r>  0.0000  0.0013  0.0000 </r>
        <r>  0.0002  0.0041  0.0000 </r>
        <r>  0.0004  0.0081  0.0000 </r>
       </set>
       <set comment="band 45">
        <r>  0.0000  0.0011  0.0054 </r>
        <r>  0.0001  0.0013  0.0038 </r>
        <r>  0.0008  0.0022  0.0158 </r>
        <r>  0.0008  0.0023  0.0147 </r>
        <r>  0.0210  0.0112  0.2942 </r>
        <r>  0.0121  0.0111  0.1745 </r>
        <r>  0.0034  0.0036  0.0861 </r>
        <r>  0.0031  0.0046  0.0942 </r>
        <r>  0.0000  0.0092  0.0000 </r>
        <r>  0.0000  0.0084  0.0000 </r>
        <r>  0.0001  0.0079  0.0000 </r>
        <r>  0.0001  0.0067  0.0000 </r>
       </set>
       <set comment="band 46">
        <r>  0.0002  0.0012  0.0125 </r>
        <r>  0.0005  0.0022  0.0078 </r>
        <r>  0.0006  0.0021  0.0080 </r>
        <r>  0.0004  0.0013  0.0113 </r>
        <r>  0.0017  0.0037  0.0614 </r>
        <r>  0.0057  0.0049  0.1281 </r>
        <r>  0.0208  0.0112  0.2950 </r>
        <r>  0.0115  0.0106  0.1644 </r>
        <r>  0.0000  0.0051  0.0000 </r>
        <r>  0.0001  0.0091  0.0000 </r>
        <r>  0.0000  0.0096  0.0000 </r>
        <r>  0.0000  0.0085  0.0000 </r>
       </set>
       <set comment="band 47">
        <r>  0.0005  0.0017  0.0099 </r>
        <r>  0.0006  0.0017  0.0095 </r>
        <r>  0.0003  0.0017  0.0102 </r>
        <r>  0.0004  0.0017  0.0100 </r>
        <r>  0.0029  0.0046  0.0970 </r>
        <r>  0.0021  0.0030  0.0678 </r>
        <r>  0.0109  0.0113  0.1554 </r>
        <r>  0.0237  0.0116  0.3287 </r>
        <r>  0.0001  0.0082  0.0000 </r>
        <r>  0.0000  0.0067  0.0000 </r>
        <r>  0.0000  0.0095  0.0000 </r>
        <r>  0.0000  0.0079  0.0000 </r>
       </set>
       <set comment="band 48">
        <r>  0.0010  0.0028  0.0118 </r>
        <r>  0.0005  0.0016  0.0185 </r>
        <r>  0.0001  0.0008  0.0056 </r>
        <r>  0.0001  0.0016  0.0036 </r>
        <r>  0.0140  0.0110  0.1964 </r>
        <r>  0.0197  0.0115  0.2785 </r>
        <r>  0.0045  0.0044  0.1125 </r>
        <r>  0.0014  0.0037  0.0616 </r>
        <r>  0.0000  0.0098  0.0000 </r>
        <r>  0.0000  0.0080  0.0000 </r>
        <r>  0.0000  0.0054  0.0000 </r>
        <r>  0.0001  0.0091  0.0000 </r>
       </set>
       <set comment="band 49">
        <r>  0.0002  0.0018  0.0138 </r>
        <r>  0.0006  0.0065  0.0115 </r>
        <r>  0.0002  0.0017  0.0339 </r>
        <r>  0.0002  0.0025  0.0105 </r>
        <r>  0.0196  0.0076  0.1209 </r>
        <r>  0.0073  0.0157  0.0757 </r>
        <r>  0.0154  0.0082  0.1423 </r>
        <r>  0.0103  0.0156  0.0648 </r>
        <r>  0.0001  0.0494  0.0000 </r>
        <r>  0.0004  0.0678  0.0000 </r>
        <r>  0.0015  0.0159  0.0000 </r>
        <r>  0.0009  0.0083  0.0000 </r>
       </set>
       <set comment="band 50">
        <r>  0.0004  0.0044  0.0111 </r>
        <r>  0.0003  0.0031  0.0180 </r>
        <r>  0.0003  0.0033  0.0175 </r>
        <r>  0.0002  0.0017  0.0231 </r>
        <r>  0.0115  0.0115  0.1210 </r>
        <r>  0.0157  0.0125  0.0794 </r>
        <r>  0.0170  0.0102  0.0958 </r>
        <r>  0.0085  0.0129  0.1076 </r>
        <r>  0.0011  0.0138  0.0000 </r>
        <r>  0.0014  0.0054  0.0000 </r>
        <r>  0.0000  0.0662  0.0000 </r>
        <r>  0.0003  0.0561  0.0000 </r>
       </set>
      </set>
     </set>
    </set>
   </array>
  </projected>
 </calculation>
 <structure name="finalpos" >
  <crystal>
   <varray name="basis" >
    <v>       3.55220829       0.00000000       0.00000000 </v>
    <v>       0.00000000       7.72511952       0.00000000 </v>
    <v>       0.00000000       0.00000000       7.62356996 </v>
   </varray>
   <i name="volume">    209.20016396 </i>
   <varray name="rec_basis" >
    <v>       0.28151502       0.00000000      -0.00000000 </v>
    <v>       0.00000000       0.12944784       0.00000000 </v>
    <v>      -0.00000000       0.00000000       0.13117214 </v>
   </varray>
  </crystal>
  <varray name="positions" >
   <v>       0.99938279       0.00167952       0.75000000 </v>
   <v>       0.00061721       0.99832048       0.25000000 </v>
   <v>       0.99938279       0.49832048       0.25000000 </v>
   <v>       0.00061721       0.50167952       0.75000000 </v>
   <v>       0.49949911       0.75000000       0.50000000 </v>
   <v>       0.50050089       0.25000000       0.50000000 </v>
   <v>       0.50050089       0.25000000       0.00000000 </v>
   <v>       0.49949911       0.75000000      -0.00000000 </v>
   <v>       0.51087767       0.75181431       0.75000000 </v>
   <v>       0.48912233       0.24818569       0.25000000 </v>
   <v>       0.51087767       0.74818569       0.25000000 </v>
   <v>       0.48912233       0.25181431       0.75000000 </v>
  </varray>
 </structure>
</modeling>
