<?xml version="1.0" encoding="ISO-8859-1"?>
<modeling>
 <generator>
  <i name="program" type="string">vasp </i>
  <i name="version" type="string">5.4.4.18Apr17-6-g9f103f2a35  </i>
  <i name="subversion" type="string">(build Apr 24 2023 09:55:28) complex            parallel </i>
  <i name="platform" type="string">LinuxIFC </i>
  <i name="date" type="string">2024 04 22 </i>
  <i name="time" type="string">15:40:22 </i>
 </generator>
 <incar>
  <i type="string" name="SYSTEM"> DFT routine</i>
  <i type="int" name="ISTART">     0</i>
  <i type="string" name="PREC">acc</i>
  <i type="int" name="IALGO">    38</i>
  <i type="int" name="ICHARG">     2</i>
  <i type="int" name="NELM">   100</i>
  <i type="int" name="IBRION">     1</i>
  <i name="EDIFF">      0.00001000</i>
  <i name="EDIFFG">      0.00010000</i>
  <i type="int" name="NSW">     3</i>
  <i type="int" name="ISIF">     3</i>
  <i name="ENCUT">    400.00000000</i>
  <i name="POTIM">      0.10000000</i>
  <i type="logical" name="LREAL"> F  </i>
  <i type="int" name="ISMEAR">     0</i>
  <i name="SIGMA">      0.01000000</i>
  <i type="logical" name="LWAVE"> F  </i>
  <i type="logical" name="LCHARG"> F  </i>
  <i type="int" name="LORBIT">    10</i>
  <i type="logical" name="LELF"> F  </i>
  <v type="int" name="KPOINT_BSE">    -1     0     0     0</v>
  <i type="int" name="NELM">   100</i>
 </incar>
 <structure name="primitive_cell" >
  <crystal>
   <varray name="basis" >
    <v>      -3.49957000       0.00000000       0.00000000 </v>
    <v>       0.00000000       0.00000000      -3.58951500 </v>
    <v>      -0.00000000      -4.64222000      -0.00000000 </v>
   </varray>
   <i name="volume">     58.31444890 </i>
   <varray name="rec_basis" >
    <v>      -0.28574939       0.00000000       0.00000000 </v>
    <v>       0.00000000       0.00000000      -0.27858917 </v>
    <v>       0.00000000      -0.21541418       0.00000000 </v>
   </varray>
  </crystal>
  <varray name="positions" >
   <v>       0.00000000      -0.50000000       0.00000000 </v>
   <v>      -0.50000000      -0.50000000      -0.50000000 </v>
   <v>       0.00000000       0.00000000      -0.50000000 </v>
   <v>      -0.50000000       0.00000000      -0.50000000 </v>
  </varray>
 </structure>
 <varray name="primitive_index" >
  <v type="int" >        1 </v>
  <v type="int" >        4 </v>
  <v type="int" >        7 </v>
  <v type="int" >        5 </v>
 </varray>
 <kpoints>
  <generation param="Auto">
   <i name="subdivisionlength">     30.00000000 </i>
   <v type="int" name="divisions">       9        6        4 </v>
   <v name="usershift">      0.00000000       0.00000000       0.00000000 </v>
   <v name="genvec1">      0.11111111       0.00000000       0.00000000 </v>
   <v name="genvec2">      0.00000000       0.16666667       0.00000000 </v>
   <v name="genvec3">      0.00000000       0.00000000       0.25000000 </v>
   <v name="shift">      0.00000000       0.00000000       0.00000000 </v>
  </generation>
  <varray name="kpointlist" >
   <v>       0.00000000       0.00000000       0.00000000 </v>
   <v>       0.11111111       0.00000000       0.00000000 </v>
   <v>       0.22222222       0.00000000       0.00000000 </v>
   <v>       0.33333333       0.00000000       0.00000000 </v>
   <v>       0.44444444       0.00000000       0.00000000 </v>
   <v>       0.00000000       0.16666667       0.00000000 </v>
   <v>       0.11111111       0.16666667       0.00000000 </v>
   <v>       0.22222222       0.16666667       0.00000000 </v>
   <v>       0.33333333       0.16666667       0.00000000 </v>
   <v>       0.44444444       0.16666667       0.00000000 </v>
   <v>       0.00000000       0.33333333       0.00000000 </v>
   <v>       0.11111111       0.33333333       0.00000000 </v>
   <v>       0.22222222       0.33333333       0.00000000 </v>
   <v>       0.33333333       0.33333333       0.00000000 </v>
   <v>       0.44444444       0.33333333       0.00000000 </v>
   <v>       0.00000000       0.50000000       0.00000000 </v>
   <v>       0.11111111       0.50000000       0.00000000 </v>
   <v>       0.22222222       0.50000000       0.00000000 </v>
   <v>       0.33333333       0.50000000       0.00000000 </v>
   <v>       0.44444444       0.50000000       0.00000000 </v>
   <v>       0.00000000       0.00000000       0.25000000 </v>
   <v>       0.11111111       0.00000000       0.25000000 </v>
   <v>       0.22222222       0.00000000       0.25000000 </v>
   <v>       0.33333333       0.00000000       0.25000000 </v>
   <v>       0.44444444       0.00000000       0.25000000 </v>
   <v>       0.00000000       0.16666667       0.25000000 </v>
   <v>       0.11111111       0.16666667       0.25000000 </v>
   <v>       0.22222222       0.16666667       0.25000000 </v>
   <v>       0.33333333       0.16666667       0.25000000 </v>
   <v>       0.44444444       0.16666667       0.25000000 </v>
   <v>       0.00000000       0.33333333       0.25000000 </v>
   <v>       0.11111111       0.33333333       0.25000000 </v>
   <v>       0.22222222       0.33333333       0.25000000 </v>
   <v>       0.33333333       0.33333333       0.25000000 </v>
   <v>       0.44444444       0.33333333       0.25000000 </v>
   <v>       0.00000000       0.50000000       0.25000000 </v>
   <v>       0.11111111       0.50000000       0.25000000 </v>
   <v>       0.22222222       0.50000000       0.25000000 </v>
   <v>       0.33333333       0.50000000       0.25000000 </v>
   <v>       0.44444444       0.50000000       0.25000000 </v>
   <v>       0.00000000       0.00000000       0.50000000 </v>
   <v>       0.11111111       0.00000000       0.50000000 </v>
   <v>       0.22222222       0.00000000       0.50000000 </v>
   <v>       0.33333333       0.00000000       0.50000000 </v>
   <v>       0.44444444       0.00000000       0.50000000 </v>
   <v>       0.00000000       0.16666667       0.50000000 </v>
   <v>       0.11111111       0.16666667       0.50000000 </v>
   <v>       0.22222222       0.16666667       0.50000000 </v>
   <v>       0.33333333       0.16666667       0.50000000 </v>
   <v>       0.44444444       0.16666667       0.50000000 </v>
   <v>       0.00000000       0.33333333       0.50000000 </v>
   <v>       0.11111111       0.33333333       0.50000000 </v>
   <v>       0.22222222       0.33333333       0.50000000 </v>
   <v>       0.33333333       0.33333333       0.50000000 </v>
   <v>       0.44444444       0.33333333       0.50000000 </v>
   <v>       0.00000000       0.50000000       0.50000000 </v>
   <v>       0.11111111       0.50000000       0.50000000 </v>
   <v>       0.22222222       0.50000000       0.50000000 </v>
   <v>       0.33333333       0.50000000       0.50000000 </v>
   <v>       0.44444444       0.50000000       0.50000000 </v>
  </varray>
  <varray name="weights" >
   <v>       0.00462963 </v>
   <v>       0.00925926 </v>
   <v>       0.00925926 </v>
   <v>       0.00925926 </v>
   <v>       0.00925926 </v>
   <v>       0.00925926 </v>
   <v>       0.01851852 </v>
   <v>       0.01851852 </v>
   <v>       0.01851852 </v>
   <v>       0.01851852 </v>
   <v>       0.00925926 </v>
   <v>       0.01851852 </v>
   <v>       0.01851852 </v>
   <v>       0.01851852 </v>
   <v>       0.01851852 </v>
   <v>       0.00462963 </v>
   <v>       0.00925926 </v>
   <v>       0.00925926 </v>
   <v>       0.00925926 </v>
   <v>       0.00925926 </v>
   <v>       0.00925926 </v>
   <v>       0.01851852 </v>
   <v>       0.01851852 </v>
   <v>       0.01851852 </v>
   <v>       0.01851852 </v>
   <v>       0.01851852 </v>
   <v>       0.03703704 </v>
   <v>       0.03703704 </v>
   <v>       0.03703704 </v>
   <v>       0.03703704 </v>
   <v>       0.01851852 </v>
   <v>       0.03703704 </v>
   <v>       0.03703704 </v>
   <v>       0.03703704 </v>
   <v>       0.03703704 </v>
   <v>       0.00925926 </v>
   <v>       0.01851852 </v>
   <v>       0.01851852 </v>
   <v>       0.01851852 </v>
   <v>       0.01851852 </v>
   <v>       0.00462963 </v>
   <v>       0.00925926 </v>
   <v>       0.00925926 </v>
   <v>       0.00925926 </v>
   <v>       0.00925926 </v>
   <v>       0.00925926 </v>
   <v>       0.01851852 </v>
   <v>       0.01851852 </v>
   <v>       0.01851852 </v>
   <v>       0.01851852 </v>
   <v>       0.00925926 </v>
   <v>       0.01851852 </v>
   <v>       0.01851852 </v>
   <v>       0.01851852 </v>
   <v>       0.01851852 </v>
   <v>       0.00462963 </v>
   <v>       0.00925926 </v>
   <v>       0.00925926 </v>
   <v>       0.00925926 </v>
   <v>       0.00925926 </v>
  </varray>
 </kpoints>
 <parameters>
  <separator name="general" >
   <i type="string" name="SYSTEM">DFT routine</i>
   <i type="logical" name="LCOMPAT"> F  </i>
  </separator>
  <separator name="electronic" >
   <i type="string" name="PREC">acc</i>
   <i name="ENMAX">    400.00000000</i>
   <i name="ENAUG">    535.51400000</i>
   <i name="EDIFF">      0.00001000</i>
   <i type="int" name="IALGO">    38</i>
   <i type="int" name="IWAVPR">    11</i>
   <i type="int" name="NBANDS">    35</i>
   <i name="NELECT">     52.00000000</i>
   <i type="int" name="TURBO">     0</i>
   <i type="int" name="IRESTART">     0</i>
   <i type="int" name="NREBOOT">     0</i>
   <i type="int" name="NMIN">     0</i>
   <i name="EREF">      0.00000000</i>
   <separator name="electronic smearing" >
    <i type="int" name="ISMEAR">     0</i>
    <i name="SIGMA">      0.01000000</i>
    <i name="KSPACING">      0.50000000</i>
    <i type="logical" name="KGAMMA"> T  </i>
   </separator>
   <separator name="electronic projectors" >
    <i type="logical" name="LREAL"> F  </i>
    <v name="ROPT">      0.00000000      0.00000000      0.00000000      0.00000000</v>
    <i type="int" name="LMAXPAW">  -100</i>
    <i type="int" name="LMAXMIX">     2</i>
    <i type="logical" name="NLSPLINE"> F  </i>
   </separator>
   <separator name="electronic startup" >
    <i type="int" name="ISTART">     0</i>
    <i type="int" name="ICHARG">     2</i>
    <i type="int" name="INIWAV">     1</i>
   </separator>
   <separator name="electronic spin" >
    <i type="int" name="ISPIN">     1</i>
    <i type="logical" name="LNONCOLLINEAR"> F  </i>
    <v name="MAGMOM">      1.00000000      1.00000000      1.00000000      1.00000000      1.00000000      1.00000000      1.00000000      1.00000000</v>
    <i name="NUPDOWN">     -1.00000000</i>
    <i type="logical" name="LSORBIT"> F  </i>
    <v name="SAXIS">      0.00000000      0.00000000      1.00000000</v>
    <i type="logical" name="LSPIRAL"> F  </i>
    <v name="QSPIRAL">      0.00000000      0.00000000      0.00000000</v>
    <i type="logical" name="LZEROZ"> F  </i>
   </separator>
   <separator name="electronic exchange-correlation" >
    <i type="logical" name="LASPH"> F  </i>
    <i type="logical" name="LMETAGGA"> F  </i>
   </separator>
   <separator name="electronic convergence" >
    <i type="int" name="NELM">   100</i>
    <i type="int" name="NELMDL">    -5</i>
    <i type="int" name="NELMIN">     2</i>
    <i name="ENINI">    400.00000000</i>
    <separator name="electronic convergence detail" >
     <i type="logical" name="LDIAG"> T  </i>
     <i type="logical" name="LSUBROT"> F  </i>
     <i name="WEIMIN">      0.00100000</i>
     <i name="EBREAK">      0.00000007</i>
     <i name="DEPER">      0.30000000</i>
     <i type="int" name="NRMM">     4</i>
     <i name="TIME">      0.40000000</i>
    </separator>
   </separator>
   <separator name="electronic mixer" >
    <i name="AMIX">      0.40000000</i>
    <i name="BMIX">      1.00000000</i>
    <i name="AMIN">      0.10000000</i>
    <i name="AMIX_MAG">      1.60000000</i>
    <i name="BMIX_MAG">      1.00000000</i>
    <separator name="electronic mixer details" >
     <i type="int" name="IMIX">     4</i>
     <i type="logical" name="MIXFIRST"> F  </i>
     <i type="int" name="MAXMIX">   -45</i>
     <i name="WC">    100.00000000</i>
     <i type="int" name="INIMIX">     1</i>
     <i type="int" name="MIXPRE">     1</i>
     <i type="int" name="MREMOVE">     5</i>
    </separator>
   </separator>
   <separator name="electronic dipolcorrection" >
    <i type="logical" name="LDIPOL"> F  </i>
    <i type="logical" name="LMONO"> F  </i>
    <i type="int" name="IDIPOL">     0</i>
    <i name="EPSILON">      1.00000000</i>
    <v name="DIPOL">   -100.00000000   -100.00000000   -100.00000000</v>
    <i name="EFIELD">      0.00000000</i>
   </separator>
  </separator>
  <separator name="grids" >
   <i type="int" name="NGX">    24</i>
   <i type="int" name="NGY">    30</i>
   <i type="int" name="NGZ">    48</i>
   <i type="int" name="NGXF">    48</i>
   <i type="int" name="NGYF">    60</i>
   <i type="int" name="NGZF">    96</i>
   <i type="logical" name="ADDGRID"> F  </i>
  </separator>
  <separator name="ionic" >
   <i type="int" name="NSW">     3</i>
   <i type="int" name="IBRION">     1</i>
   <i type="int" name="MDALGO">     0</i>
   <i type="int" name="ISIF">     3</i>
   <i name="PSTRESS">      0.00000000</i>
   <i name="EDIFFG">      0.00010000</i>
   <i type="int" name="NFREE">     0</i>
   <i name="POTIM">      0.10000000</i>
   <i name="SMASS">     -3.00000000</i>
   <i name="SCALEE">      1.00000000</i>
  </separator>
  <separator name="ionic md" >
   <i name="TEBEG">      0.00010000</i>
   <i name="TEEND">      0.00010000</i>
   <i type="int" name="NBLOCK">     1</i>
   <i type="int" name="KBLOCK">     3</i>
   <i type="int" name="NPACO">   256</i>
   <i name="APACO">     16.00000000</i>
  </separator>
  <separator name="symmetry" >
   <i type="int" name="ISYM">     2</i>
   <i name="SYMPREC">      0.00001000</i>
  </separator>
  <separator name="dos" >
   <i type="int" name="LORBIT">    10</i>
   <v name="RWIGS">     -1.00000000     -1.00000000     -1.00000000     -1.00000000</v>
   <i type="int" name="NEDOS">   301</i>
   <i name="EMIN">     10.00000000</i>
   <i name="EMAX">    -10.00000000</i>
   <i name="EFERMI">      0.00000000</i>
  </separator>
  <separator name="writing" >
   <i type="int" name="NWRITE">     2</i>
   <i type="logical" name="LWAVE"> F  </i>
   <i type="logical" name="LDOWNSAMPLE"> F  </i>
   <i type="logical" name="LCHARG"> F  </i>
   <i type="logical" name="LPARD"> F  </i>
   <i type="logical" name="LVTOT"> F  </i>
   <i type="logical" name="LVHAR"> F  </i>
   <i type="logical" name="LELF"> F  </i>
   <i type="logical" name="LOPTICS"> F  </i>
   <v name="STM">      0.00000000      0.00000000      0.00000000      0.00000000      0.00000000      0.00000000      0.00000000</v>
  </separator>
  <separator name="performance" >
   <i type="int" name="NPAR">     5</i>
   <i type="int" name="NSIM">     4</i>
   <i type="int" name="NBLK">    -1</i>
   <i type="logical" name="LPLANE"> T  </i>
   <i type="logical" name="LSCALAPACK"> T  </i>
   <i type="logical" name="LSCAAWARE"> F  </i>
   <i type="logical" name="LSCALU"> F  </i>
   <i type="logical" name="LASYNC"> F  </i>
   <i type="logical" name="LORBITALREAL"> F  </i>
  </separator>
  <separator name="miscellaneous" >
   <i type="int" name="IDIOT">     3</i>
   <i type="int" name="ISPECIAL">     0</i>
   <i type="logical" name="LMUSIC"> F  </i>
   <v name="POMASS">     40.07800000     55.84700000     10.81100000     30.97400000</v>
   <v name="DARWINR">      0.00000000      0.00000000      0.00000000      0.00000000</v>
   <v name="DARWINV">      1.00000000      1.00000000      1.00000000      1.00000000</v>
   <i type="logical" name="LCORR"> T  </i>
  </separator>
  <i type="logical" name="GGA_COMPAT"> T  </i>
  <i type="logical" name="LBERRY"> F  </i>
  <i type="int" name="ICORELEVEL">     0</i>
  <i type="logical" name="LDAU"> F  </i>
  <i type="int" name="I_CONSTRAINED_M">     0</i>
  <separator name="electronic exchange-correlation" >
   <i type="string" name="GGA">--</i>
   <i type="int" name="VOSKOWN">     0</i>
   <i type="logical" name="LHFCALC"> F  </i>
   <i type="string" name="PRECFOCK"></i>
   <i type="logical" name="LSYMGRAD"> F  </i>
   <i type="logical" name="LHFONE"> F  </i>
   <i type="logical" name="LRHFCALC"> F  </i>
   <i type="logical" name="LTHOMAS"> F  </i>
   <i type="logical" name="LMODELHF"> F  </i>
   <i name="ENCUT4O">     -1.00000000</i>
   <i type="int" name="EXXOEP">     0</i>
   <i type="int" name="FOURORBIT">     0</i>
   <i name="AEXX">      0.00000000</i>
   <i name="HFALPHA">      0.00000000</i>
   <i name="MCALPHA">      0.00000000</i>
   <i name="ALDAX">      1.00000000</i>
   <i name="AGGAX">      1.00000000</i>
   <i name="ALDAC">      1.00000000</i>
   <i name="AGGAC">      1.00000000</i>
   <i type="int" name="NKREDX">     1</i>
   <i type="int" name="NKREDY">     1</i>
   <i type="int" name="NKREDZ">     1</i>
   <i type="logical" name="SHIFTRED"> F  </i>
   <i type="logical" name="ODDONLY"> F  </i>
   <i type="logical" name="EVENONLY"> F  </i>
   <i type="int" name="LMAXFOCK">     0</i>
   <i type="int" name="NMAXFOCKAE">     0</i>
   <i type="logical" name="LFOCKAEDFT"> F  </i>
   <i name="HFSCREEN">      0.00000000</i>
   <i name="HFSCREENC">      0.00000000</i>
   <i type="int" name="NBANDSGWLOW">     0</i>
  </separator>
  <separator name="vdW DFT" >
   <i type="logical" name="LUSE_VDW"> F  </i>
   <i name="Zab_VDW">     -0.84910000</i>
   <i name="PARAM1">      0.12340000</i>
   <i name="PARAM2">      1.00000000</i>
   <i name="PARAM3">      0.00000000</i>
  </separator>
  <separator name="model GW" >
   <i type="int" name="MODEL_GW">     0</i>
   <i name="MODEL_EPS0">      8.74716734</i>
   <i name="MODEL_ALPHA">      1.00000000</i>
  </separator>
  <separator name="linear response parameters" >
   <i type="logical" name="LEPSILON"> F  </i>
   <i type="logical" name="LRPA"> F  </i>
   <i type="logical" name="LNABLA"> F  </i>
   <i type="logical" name="LVEL"> F  </i>
   <i type="int" name="KINTER">     0</i>
   <i name="CSHIFT">      0.10000000</i>
   <i name="OMEGAMAX">     -1.00000000</i>
   <i name="DEG_THRESHOLD">      0.00200000</i>
   <i name="RTIME">     -0.10000000</i>
   <i name="WPLASMAI">      0.00000000</i>
   <v name="DFIELD">      0.00000000      0.00000000      0.00000000</v>
   <v name="WPLASMA">      0.00000000      0.00000000      0.00000000      0.00000000      0.00000000      0.00000000      0.00000000      0.00000000      0.00000000</v>
  </separator>
  <separator name="orbital magnetization" >
   <i type="logical" name="NUCIND"> F  </i>
   <v name="MAGPOS">      0.00000000      0.00000000      0.00000000</v>
   <i type="logical" name="LNICSALL"> T  </i>
   <i type="logical" name="ORBITALMAG"> F  </i>
   <i type="logical" name="LMAGBLOCH"> F  </i>
   <i type="logical" name="LCHIMAG"> F  </i>
   <i type="logical" name="LGAUGE"> T  </i>
   <i type="int" name="MAGATOM">     0</i>
   <v name="MAGDIPOL">      0.00000000      0.00000000      0.00000000</v>
   <v name="AVECCONST">      0.00000000      0.00000000      0.00000000</v>
  </separator>
  <separator name="response functions" >
   <i type="logical" name="LADDER"> F  </i>
   <i type="logical" name="LRPAFORCE"> F  </i>
   <i type="logical" name="LFXC"> F  </i>
   <i type="logical" name="LHARTREE"> T  </i>
   <i type="int" name="IBSE">     0</i>
   <v type="int" name="KPOINT">    -1     0     0     0</v>
   <i type="logical" name="LTCTE"> F  </i>
   <i type="logical" name="LTETE"> F  </i>
   <i type="logical" name="LTRIPLET"> F  </i>
   <i type="logical" name="LFXCEPS"> F  </i>
   <i type="logical" name="LFXHEG"> F  </i>
   <i type="int" name="NATURALO">     2</i>
   <i type="logical" name="L2ORDER"> F  </i>
   <i type="logical" name="LMP2LT"> F  </i>
   <i type="logical" name="LUSEW"> F  </i>
   <i name="ENCUTGW">     -2.00000000</i>
   <i name="ENCUTGWSOFT">     -2.00000000</i>
   <i name="ENCUTLF">     -1.00000000</i>
   <i type="int" name="LMAXMP2">    -1</i>
   <i name="SCISSOR">      0.00000000</i>
   <i type="int" name="NOMEGA">     0</i>
   <i type="int" name="NOMEGAR">     0</i>
   <i type="int" name="NBANDSGW">    -1</i>
   <i type="int" name="NBANDSO">    -1</i>
   <i type="int" name="NBANDSV">    -1</i>
   <i type="int" name="NELM">   100</i>
   <i type="int" name="NELMHF">     1</i>
   <i type="int" name="DIM">     3</i>
   <i type="int" name="ANTIRES">     0</i>
   <i name="OMEGAMAX">    -30.00000000</i>
   <i name="OMEGAMIN">    -30.00000000</i>
   <i name="OMEGATL">   -200.00000000</i>
   <i type="int" name="OMEGAGRID">   140</i>
   <i name="CSHIFT">     -0.10000000</i>
   <i type="logical" name="SELFENERGY"> F  </i>
   <i type="logical" name="LSPECTRAL"> F  </i>
   <i type="logical" name="LSPECTRALGW"> F  </i>
   <i type="logical" name="LSINGLES"> F  </i>
   <i type="logical" name="LFERMIGW"> F  </i>
   <i type="logical" name="ODDONLYGW"> F  </i>
   <i type="logical" name="EVENONLYGW"> F  </i>
   <i type="int" name="NKREDLFX">     1</i>
   <i type="int" name="NKREDLFY">     1</i>
   <i type="int" name="NKREDLFZ">     1</i>
   <i type="int" name="MAXMEM">  2800</i>
   <i type="int" name="TELESCOPE">     0</i>
   <i type="int" name="TAUPAR">     1</i>
   <i type="int" name="OMEGAPAR">    -1</i>
   <i name="LAMBDA">      1.00000000</i>
  </separator>
  <separator name="External order field" >
   <i name="OFIELD_KAPPA">      0.00000000</i>
   <v name="OFIELD_K">      0.00000000      0.00000000      0.00000000</v>
   <i name="OFIELD_Q6_NEAR">      0.00000000</i>
   <i name="OFIELD_Q6_FAR">      0.00000000</i>
   <i name="OFIELD_A">      0.00000000</i>
  </separator>
 </parameters>
 <atominfo>
  <atoms>       8 </atoms>
  <types>       4 </types>
  <array name="atoms" >
   <dimension dim="1">ion</dimension>
   <field type="string">element</field>
   <field type="int">atomtype</field>
   <set>
    <rc><c>Ca</c><c>   1</c></rc>
    <rc><c>Ca</c><c>   1</c></rc>
    <rc><c>Fe</c><c>   2</c></rc>
    <rc><c>Fe</c><c>   2</c></rc>
    <rc><c>B </c><c>   3</c></rc>
    <rc><c>B </c><c>   3</c></rc>
    <rc><c>P </c><c>   4</c></rc>
    <rc><c>P </c><c>   4</c></rc>
   </set>
  </array>
  <array name="atomtypes" >
   <dimension dim="1">type</dimension>
   <field type="int">atomspertype</field>
   <field type="string">element</field>
   <field>mass</field>
   <field>valence</field>
   <field type="string">pseudopotential</field>
   <set>
    <rc><c>   2</c><c>Ca</c><c>     40.07800000</c><c>     10.00000000</c><c>  PAW_PBE Ca_sv 06Sep2000               </c></rc>
    <rc><c>   2</c><c>Fe</c><c>     55.84700000</c><c>      8.00000000</c><c>  PAW_PBE Fe 06Sep2000                  </c></rc>
    <rc><c>   2</c><c>B </c><c>     10.81100000</c><c>      3.00000000</c><c>  PAW_PBE B 06Sep2000                   </c></rc>
    <rc><c>   2</c><c>P </c><c>     30.97400000</c><c>      5.00000000</c><c>  PAW_PBE P 06Sep2000                   </c></rc>
   </set>
  </array>
 </atominfo>
 <structure name="initialpos" >
  <crystal>
   <varray name="basis" >
    <v>       3.49957000       0.00000000       0.00000000 </v>
    <v>       0.00000000       4.64222000       0.00000000 </v>
    <v>       0.00000000       0.00000000       7.17903000 </v>
   </varray>
   <i name="volume">    116.62889781 </i>
   <varray name="rec_basis" >
    <v>       0.28574939      -0.00000000       0.00000000 </v>
    <v>       0.00000000       0.21541418       0.00000000 </v>
    <v>      -0.00000000      -0.00000000       0.13929458 </v>
   </varray>
  </crystal>
  <varray name="positions" >
   <v>       0.00000000       0.00000000       0.25000000 </v>
   <v>       0.00000000       0.00000000       0.75000000 </v>
   <v>       0.50000000       0.50000000       0.75000000 </v>
   <v>       0.50000000       0.50000000       0.25000000 </v>
   <v>       0.50000000       0.50000000       0.00000000 </v>
   <v>       0.50000000       0.50000000       0.50000000 </v>
   <v>       0.00000000       0.50000000       0.00000000 </v>
   <v>       0.00000000       0.50000000       0.50000000 </v>
  </varray>
 </structure>
 <calculation>
  <scstep>
   <time name="dav">    0.99    0.99</time>
   <time name="total">    1.01    1.01</time>
   <energy>
    <i name="alphaZ">    228.56959526 </i>
    <i name="ewald">  -2976.06588353 </i>
    <i name="hartreedc">   -857.67326091 </i>
    <i name="XCdc">    116.34806238 </i>
    <i name="pawpsdc">   2968.40852088 </i>
    <i name="pawaedc">  -2945.74066407 </i>
    <i name="eentropy">     -0.00012122 </i>
    <i name="bandstr">    193.29979585 </i>
    <i name="atom">   3695.20123917 </i>
    <i name="e_fr_energy">    422.34728380 </i>
    <i name="e_wo_entrp">    422.34740502 </i>
    <i name="e_0_energy">    422.34734441 </i>
   </energy>
  </scstep>
  <scstep>
   <time name="dav">    0.96    0.96</time>
   <time name="total">    0.96    0.96</time>
   <energy>
    <i name="e_fr_energy">     -6.81550141 </i>
    <i name="e_wo_entrp">     -6.81511393 </i>
    <i name="e_0_energy">     -6.81530767 </i>
   </energy>
  </scstep>
  <scstep>
   <time name="dav">    1.40    1.40</time>
   <time name="total">    1.41    1.41</time>
   <energy>
    <i name="e_fr_energy">    -44.37639922 </i>
    <i name="e_wo_entrp">    -44.37575849 </i>
    <i name="e_0_energy">    -44.37607885 </i>
   </energy>
  </scstep>
  <scstep>
   <time name="dav">    1.40    1.40</time>
   <time name="total">    1.40    1.40</time>
   <energy>
    <i name="e_fr_energy">    -47.11067342 </i>
    <i name="e_wo_entrp">    -47.11009855 </i>
    <i name="e_0_energy">    -47.11038599 </i>
   </energy>
  </scstep>
  <scstep>
   <time name="dav">    1.38    1.38</time>
   <time name="total">    1.42    1.42</time>
   <energy>
    <i name="e_fr_energy">    -47.21410435 </i>
    <i name="e_wo_entrp">    -47.21357545 </i>
    <i name="e_0_energy">    -47.21383990 </i>
   </energy>
  </scstep>
  <scstep>
   <time name="dav">    1.24    1.24</time>
   <time name="total">    1.29    1.29</time>
   <energy>
    <i name="e_fr_energy">    -67.08530660 </i>
    <i name="e_wo_entrp">    -67.08514015 </i>
    <i name="e_0_energy">    -67.08522338 </i>
   </energy>
  </scstep>
  <scstep>
   <time name="dav">    1.25    1.25</time>
   <time name="total">    1.30    1.30</time>
   <energy>
    <i name="e_fr_energy">    -40.42500944 </i>
    <i name="e_wo_entrp">    -40.42472845 </i>
    <i name="e_0_energy">    -40.42486895 </i>
   </energy>
  </scstep>
  <scstep>
   <time name="dav">    1.37    1.37</time>
   <time name="total">    1.43    1.43</time>
   <energy>
    <i name="e_fr_energy">    -41.40894978 </i>
    <i name="e_wo_entrp">    -41.40838267 </i>
    <i name="e_0_energy">    -41.40866623 </i>
   </energy>
  </scstep>
  <scstep>
   <time name="dav">    1.31    1.31</time>
   <time name="total">    1.36    1.36</time>
   <energy>
    <i name="e_fr_energy">    -40.90052888 </i>
    <i name="e_wo_entrp">    -40.90013096 </i>
    <i name="e_0_energy">    -40.90032992 </i>
   </energy>
  </scstep>
  <scstep>
   <time name="dav">    1.25    1.25</time>
   <time name="total">    1.31    1.31</time>
   <energy>
    <i name="e_fr_energy">    -40.86239311 </i>
    <i name="e_wo_entrp">    -40.86228855 </i>
    <i name="e_0_energy">    -40.86234083 </i>
   </energy>
  </scstep>
  <scstep>
   <time name="dav">    1.36    1.36</time>
   <time name="total">    1.42    1.42</time>
   <energy>
    <i name="e_fr_energy">    -40.84874377 </i>
    <i name="e_wo_entrp">    -40.84849075 </i>
    <i name="e_0_energy">    -40.84861726 </i>
   </energy>
  </scstep>
  <scstep>
   <time name="dav">    1.24    1.24</time>
   <time name="total">    1.29    1.29</time>
   <energy>
    <i name="e_fr_energy">    -40.84892693 </i>
    <i name="e_wo_entrp">    -40.84870626 </i>
    <i name="e_0_energy">    -40.84881660 </i>
   </energy>
  </scstep>
  <scstep>
   <time name="dav">    1.27    1.27</time>
   <time name="total">    1.33    1.33</time>
   <energy>
    <i name="e_fr_energy">    -40.84853350 </i>
    <i name="e_wo_entrp">    -40.84825673 </i>
    <i name="e_0_energy">    -40.84839511 </i>
   </energy>
  </scstep>
  <scstep>
   <time name="dav">    1.33    1.33</time>
   <time name="total">    1.38    1.38</time>
   <energy>
    <i name="e_fr_energy">    -40.84844746 </i>
    <i name="e_wo_entrp">    -40.84815801 </i>
    <i name="e_0_energy">    -40.84830274 </i>
   </energy>
  </scstep>
  <scstep>
   <time name="dav">    1.20    1.20</time>
   <time name="total">    1.22    1.22</time>
   <energy>
    <i name="alphaZ">    228.56959526 </i>
    <i name="ewald">  -2976.06588353 </i>
    <i name="hartreedc">   -849.01658431 </i>
    <i name="XCdc">    116.52613359 </i>
    <i name="pawpsdc">   5396.09231552 </i>
    <i name="pawaedc">  -5390.66746581 </i>
    <i name="eentropy">     -0.00029648 </i>
    <i name="bandstr">   -261.48749324 </i>
    <i name="atom">   3695.20123917 </i>
    <i name="e_fr_energy">    -40.84843984 </i>
    <i name="e_wo_entrp">    -40.84814337 </i>
    <i name="e_0_energy">    -40.84829160 </i>
   </energy>
  </scstep>
  <structure>
   <crystal>
    <varray name="basis" >
     <v>       3.49957000       0.00000000       0.00000000 </v>
     <v>       0.00000000       4.64222000       0.00000000 </v>
     <v>       0.00000000       0.00000000       7.17903000 </v>
    </varray>
    <i name="volume">    116.62889781 </i>
    <varray name="rec_basis" >
     <v>       0.28574939      -0.00000000       0.00000000 </v>
     <v>       0.00000000       0.21541418       0.00000000 </v>
     <v>      -0.00000000      -0.00000000       0.13929458 </v>
    </varray>
   </crystal>
   <varray name="positions" >
    <v>       0.00000000       0.00000000       0.25000000 </v>
    <v>       0.00000000       0.00000000       0.75000000 </v>
    <v>       0.50000000       0.50000000       0.75000000 </v>
    <v>       0.50000000       0.50000000       0.25000000 </v>
    <v>       0.50000000       0.50000000       0.00000000 </v>
    <v>       0.50000000       0.50000000       0.50000000 </v>
    <v>       0.00000000       0.50000000       0.00000000 </v>
    <v>       0.00000000       0.50000000       0.50000000 </v>
   </varray>
  </structure>
  <varray name="forces" >
   <v>      -0.00000000      -0.00000000      -0.00000000 </v>
   <v>      -0.00000000      -0.00000000       0.00000000 </v>
   <v>       0.00000000      -0.00000000      -0.00000000 </v>
   <v>       0.00000000      -0.00000000      -0.00000000 </v>
   <v>      -0.00000000       0.00000000      -0.00000000 </v>
   <v>      -0.00000000       0.00000000      -0.00000000 </v>
   <v>      -0.00000000      -0.00000000      -0.00000000 </v>
   <v>      -0.00000000      -0.00000000      -0.00000000 </v>
  </varray>
  <varray name="stress" >
   <v>     246.37675509       0.00000000       0.00000000 </v>
   <v>       0.00000000      45.40138985       0.00000000 </v>
   <v>       0.00000000       0.00000000     301.49465137 </v>
  </varray>
  <energy>
   <i name="e_fr_energy">    -40.84843984 </i>
   <i name="e_wo_entrp">    -40.84829160 </i>
   <i name="e_0_energy">     -0.00029648 </i>
  </energy>
  <time name="totalsc">   20.33   20.33</time>
 </calculation>
 <calculation>
  <scstep>
   <time name="dav">    1.03    1.03</time>
   <time name="total">    1.09    1.09</time>
   <energy>
    <i name="alphaZ">    217.09553527 </i>
    <i name="ewald">  -2930.76799654 </i>
    <i name="hartreedc">   -833.14950575 </i>
    <i name="XCdc">    113.59227223 </i>
    <i name="pawpsdc">   5396.99027863 </i>
    <i name="pawaedc">  -5391.56449590 </i>
    <i name="eentropy">     -0.00052712 </i>
    <i name="bandstr">   -310.08073390 </i>
    <i name="atom">   3695.20123917 </i>
    <i name="e_fr_energy">    -42.68393391 </i>
    <i name="e_wo_entrp">    -42.68340679 </i>
    <i name="e_0_energy">    -42.68367035 </i>
   </energy>
  </scstep>
  <scstep>
   <time name="dav">    1.43    1.43</time>
   <time name="total">    1.48    1.48</time>
   <energy>
    <i name="e_fr_energy">    -49.37961311 </i>
    <i name="e_wo_entrp">    -49.37912597 </i>
    <i name="e_0_energy">    -49.37936954 </i>
   </energy>
  </scstep>
  <scstep>
   <time name="dav">    1.26    1.26</time>
   <time name="total">    1.32    1.32</time>
   <energy>
    <i name="e_fr_energy">    -41.70279985 </i>
    <i name="e_wo_entrp">    -41.70239337 </i>
    <i name="e_0_energy">    -41.70259661 </i>
   </energy>
  </scstep>
  <scstep>
   <time name="dav">    1.40    1.40</time>
   <time name="total">    1.46    1.46</time>
   <energy>
    <i name="e_fr_energy">    -41.64687056 </i>
    <i name="e_wo_entrp">    -41.64639559 </i>
    <i name="e_0_energy">    -41.64663308 </i>
   </energy>
  </scstep>
  <scstep>
   <time name="dav">    1.21    1.21</time>
   <time name="total">    1.27    1.31</time>
   <energy>
    <i name="e_fr_energy">    -41.63514240 </i>
    <i name="e_wo_entrp">    -41.63474307 </i>
    <i name="e_0_energy">    -41.63494273 </i>
   </energy>
  </scstep>
  <scstep>
   <time name="dav">    1.46    1.46</time>
   <time name="total">    1.51    1.51</time>
   <energy>
    <i name="e_fr_energy">    -41.62479363 </i>
    <i name="e_wo_entrp">    -41.62438879 </i>
    <i name="e_0_energy">    -41.62459121 </i>
   </energy>
  </scstep>
  <scstep>
   <time name="dav">    1.46    1.46</time>
   <time name="total">    1.51    1.51</time>
   <energy>
    <i name="e_fr_energy">    -41.62365897 </i>
    <i name="e_wo_entrp">    -41.62319770 </i>
    <i name="e_0_energy">    -41.62342834 </i>
   </energy>
  </scstep>
  <scstep>
   <time name="dav">    1.48    1.49</time>
   <time name="total">    1.54    1.54</time>
   <energy>
    <i name="e_fr_energy">    -41.62350288 </i>
    <i name="e_wo_entrp">    -41.62301452 </i>
    <i name="e_0_energy">    -41.62325870 </i>
   </energy>
  </scstep>
  <scstep>
   <time name="dav">    1.19    1.19</time>
   <time name="total">    1.25    1.25</time>
   <energy>
    <i name="e_fr_energy">    -41.62343815 </i>
    <i name="e_wo_entrp">    -41.62295908 </i>
    <i name="e_0_energy">    -41.62319861 </i>
   </energy>
  </scstep>
  <scstep>
   <time name="dav">    1.26    1.26</time>
   <time name="total">    1.27    1.27</time>
   <energy>
    <i name="alphaZ">    217.09553527 </i>
    <i name="ewald">  -2930.76799654 </i>
    <i name="hartreedc">   -864.12774454 </i>
    <i name="XCdc">    115.29629200 </i>
    <i name="pawpsdc">   5074.39314793 </i>
    <i name="pawaedc">  -5068.67918019 </i>
    <i name="eentropy">     -0.00047688 </i>
    <i name="bandstr">   -280.03425463 </i>
    <i name="atom">   3695.20123917 </i>
    <i name="e_fr_energy">    -41.62343840 </i>
    <i name="e_wo_entrp">    -41.62296152 </i>
    <i name="e_0_energy">    -41.62319996 </i>
   </energy>
  </scstep>
  <structure>
   <crystal>
    <varray name="basis" >
     <v>       3.57526744       0.00000000       0.00000000 </v>
     <v>       0.00000000       4.66072383       0.00000000 </v>
     <v>       0.00000000       0.00000000       7.36905563 </v>
    </varray>
    <i name="volume">    122.79303642 </i>
    <varray name="rec_basis" >
     <v>       0.27969936      -0.00000000      -0.00000000 </v>
     <v>      -0.00000000       0.21455895      -0.00000000 </v>
     <v>      -0.00000000      -0.00000000       0.13570260 </v>
    </varray>
   </crystal>
   <varray name="positions" >
    <v>      -0.00000000      -0.00000000       0.25000000 </v>
    <v>      -0.00000000      -0.00000000       0.75000000 </v>
    <v>       0.50000000       0.50000000       0.75000000 </v>
    <v>       0.50000000       0.50000000       0.25000000 </v>
    <v>       0.50000000       0.50000000      -0.00000000 </v>
    <v>       0.50000000       0.50000000       0.50000000 </v>
    <v>      -0.00000000       0.50000000      -0.00000000 </v>
    <v>      -0.00000000       0.50000000       0.50000000 </v>
   </varray>
  </structure>
  <varray name="forces" >
   <v>      -0.00000000       0.00000000      -0.00000000 </v>
   <v>      -0.00000000       0.00000000       0.00000000 </v>
   <v>       0.00000000      -0.00000000      -0.00000000 </v>
   <v>       0.00000000      -0.00000000      -0.00000000 </v>
   <v>      -0.00000000      -0.00000000      -0.00000000 </v>
   <v>      -0.00000000      -0.00000000      -0.00000000 </v>
   <v>      -0.00000000       0.00000000      -0.00000000 </v>
   <v>      -0.00000000       0.00000000       0.00000000 </v>
  </varray>
  <varray name="stress" >
   <v>     153.99328187       0.00000000       0.00000000 </v>
   <v>       0.00000000      21.57510508       0.00000000 </v>
   <v>       0.00000000       0.00000000     162.70785823 </v>
  </varray>
  <energy>
   <i name="e_fr_energy">    -41.62343840 </i>
   <i name="e_wo_entrp">    -41.62319996 </i>
   <i name="e_0_energy">     -0.00047688 </i>
  </energy>
  <time name="totalsc">   14.50   14.54</time>
 </calculation>
 <calculation>
  <scstep>
   <time name="dav">    1.04    1.04</time>
   <time name="total">    1.10    1.10</time>
   <energy>
    <i name="alphaZ">    201.32713144 </i>
    <i name="ewald">  -2865.33443864 </i>
    <i name="hartreedc">   -840.61540857 </i>
    <i name="XCdc">    111.03385024 </i>
    <i name="pawpsdc">   5074.36551039 </i>
    <i name="pawaedc">  -5068.64584644 </i>
    <i name="eentropy">     -0.00014958 </i>
    <i name="bandstr">   -351.93503300 </i>
    <i name="atom">   3695.20123917 </i>
    <i name="e_fr_energy">    -44.60314498 </i>
    <i name="e_wo_entrp">    -44.60299540 </i>
    <i name="e_0_energy">    -44.60307019 </i>
   </energy>
  </scstep>
  <scstep>
   <time name="dav">    1.52    1.52</time>
   <time name="total">    1.58    1.58</time>
   <energy>
    <i name="e_fr_energy">    -64.00383549 </i>
    <i name="e_wo_entrp">    -64.00321704 </i>
    <i name="e_0_energy">    -64.00352627 </i>
   </energy>
  </scstep>
  <scstep>
   <time name="dav">    1.23    1.23</time>
   <time name="total">    1.28    1.28</time>
   <energy>
    <i name="e_fr_energy">    -42.04742207 </i>
    <i name="e_wo_entrp">    -42.04693976 </i>
    <i name="e_0_energy">    -42.04718091 </i>
   </energy>
  </scstep>
  <scstep>
   <time name="dav">    1.40    1.40</time>
   <time name="total">    1.45    1.45</time>
   <energy>
    <i name="e_fr_energy">    -42.21753536 </i>
    <i name="e_wo_entrp">    -42.21737530 </i>
    <i name="e_0_energy">    -42.21745533 </i>
   </energy>
  </scstep>
  <scstep>
   <time name="dav">    1.24    1.24</time>
   <time name="total">    1.30    1.30</time>
   <energy>
    <i name="e_fr_energy">    -42.19107459 </i>
    <i name="e_wo_entrp">    -42.19089731 </i>
    <i name="e_0_energy">    -42.19098595 </i>
   </energy>
  </scstep>
  <scstep>
   <time name="dav">    1.58    1.58</time>
   <time name="total">    1.64    1.64</time>
   <energy>
    <i name="e_fr_energy">    -42.16591743 </i>
    <i name="e_wo_entrp">    -42.16553041 </i>
    <i name="e_0_energy">    -42.16572392 </i>
   </energy>
  </scstep>
  <scstep>
   <time name="dav">    1.29    1.29</time>
   <time name="total">    1.34    1.35</time>
   <energy>
    <i name="e_fr_energy">    -42.16352120 </i>
    <i name="e_wo_entrp">    -42.16315187 </i>
    <i name="e_0_energy">    -42.16333653 </i>
   </energy>
  </scstep>
  <scstep>
   <time name="dav">    1.50    1.50</time>
   <time name="total">    1.55    1.55</time>
   <energy>
    <i name="e_fr_energy">    -42.16288130 </i>
    <i name="e_wo_entrp">    -42.16236490 </i>
    <i name="e_0_energy">    -42.16262310 </i>
   </energy>
  </scstep>
  <scstep>
   <time name="dav">    1.25    1.25</time>
   <time name="total">    1.31    1.31</time>
   <energy>
    <i name="e_fr_energy">    -42.16286880 </i>
    <i name="e_wo_entrp">    -42.16241220 </i>
    <i name="e_0_energy">    -42.16264050 </i>
   </energy>
  </scstep>
  <scstep>
   <time name="dav">    1.27    1.27</time>
   <time name="total">    1.33    1.33</time>
   <energy>
    <i name="e_fr_energy">    -42.16283178 </i>
    <i name="e_wo_entrp">    -42.16234723 </i>
    <i name="e_0_energy">    -42.16258950 </i>
   </energy>
  </scstep>
  <scstep>
   <time name="dav">    0.83    0.83</time>
   <time name="total">    0.85    0.85</time>
   <energy>
    <i name="alphaZ">    201.32713144 </i>
    <i name="ewald">  -2865.33443864 </i>
    <i name="hartreedc">   -886.13117160 </i>
    <i name="XCdc">    113.55441228 </i>
    <i name="pawpsdc">   4670.36738863 </i>
    <i name="pawaedc">  -4664.49823876 </i>
    <i name="eentropy">     -0.00047557 </i>
    <i name="bandstr">   -306.64867640 </i>
    <i name="atom">   3695.20123917 </i>
    <i name="e_fr_energy">    -42.16282946 </i>
    <i name="e_wo_entrp">    -42.16235389 </i>
    <i name="e_0_energy">    -42.16259167 </i>
   </energy>
  </scstep>
  <structure>
   <crystal>
    <varray name="basis" >
     <v>       3.70006529       0.00000000       0.00000000 </v>
     <v>       0.00000000       4.68351691       0.00000000 </v>
     <v>       0.00000000       0.00000000       7.64083541 </v>
    </varray>
    <i name="volume">    132.41046935 </i>
    <varray name="rec_basis" >
     <v>       0.27026550      -0.00000000      -0.00000000 </v>
     <v>      -0.00000000       0.21351476      -0.00000000 </v>
     <v>      -0.00000000      -0.00000000       0.13087574 </v>
    </varray>
   </crystal>
   <varray name="positions" >
    <v>      -0.00000000       0.00000000       0.25000000 </v>
    <v>      -0.00000000       0.00000000       0.75000000 </v>
    <v>       0.50000000       0.50000000       0.75000000 </v>
    <v>       0.50000000       0.50000000       0.25000000 </v>
    <v>       0.50000000       0.50000000      -0.00000000 </v>
    <v>       0.50000000       0.50000000       0.50000000 </v>
    <v>      -0.00000000       0.50000000      -0.00000000 </v>
    <v>      -0.00000000       0.50000000       0.50000000 </v>
   </varray>
  </structure>
  <varray name="forces" >
   <v>       0.00000000      -0.00000000       0.00000000 </v>
   <v>       0.00000000      -0.00000000       0.00000000 </v>
   <v>      -0.00000000      -0.00000000       0.00000000 </v>
   <v>      -0.00000000      -0.00000000       0.00000000 </v>
   <v>       0.00000000       0.00000000       0.00000000 </v>
   <v>       0.00000000      -0.00000000      -0.00000000 </v>
   <v>       0.00000000      -0.00000000      -0.00000000 </v>
   <v>       0.00000000      -0.00000000       0.00000000 </v>
  </varray>
  <varray name="stress" >
   <v>      51.91663979      -0.00000000       0.00000000 </v>
   <v>      -0.00000000      -8.27120443      -0.00000000 </v>
   <v>       0.00000000      -0.00000000      20.77528966 </v>
  </varray>
  <energy>
   <i name="e_fr_energy">    -42.16282946 </i>
   <i name="e_wo_entrp">    -42.16259167 </i>
   <i name="e_0_energy">     -0.00047557 </i>
  </energy>
  <time name="totalsc">   15.43   15.44</time>
  <eigenvalues>
   <array>
    <dimension dim="1">band</dimension>
    <dimension dim="2">kpoint</dimension>
    <dimension dim="3">spin</dimension>
    <field>eigene</field>
    <field>occ</field>
    <set>
     <set comment="spin 1">
      <set comment="kpoint 1">
       <r>  -35.8498    1.0000 </r>
       <r>  -35.8428    1.0000 </r>
       <r>  -17.0656    1.0000 </r>
       <r>  -16.9479    1.0000 </r>
       <r>  -16.8661    1.0000 </r>
       <r>  -16.8484    1.0000 </r>
       <r>  -16.7913    1.0000 </r>
       <r>  -16.7826    1.0000 </r>
       <r>   -8.4917    1.0000 </r>
       <r>   -7.7050    1.0000 </r>
       <r>   -1.9109    1.0000 </r>
       <r>   -1.6556    1.0000 </r>
       <r>   -1.1733    1.0000 </r>
       <r>    0.1906    1.0000 </r>
       <r>    0.8095    1.0000 </r>
       <r>    1.2301    1.0000 </r>
       <r>    1.4446    1.0000 </r>
       <r>    2.3351    1.0000 </r>
       <r>    3.0335    1.0000 </r>
       <r>    3.8021    1.0000 </r>
       <r>    3.9159    1.0000 </r>
       <r>    4.2934    1.0000 </r>
       <r>    4.3045    1.0000 </r>
       <r>    4.4040    1.0000 </r>
       <r>    4.5401    1.0000 </r>
       <r>    4.8523    1.0000 </r>
       <r>    5.2104    0.0000 </r>
       <r>    5.8894    0.0000 </r>
       <r>    6.1917    0.0000 </r>
       <r>    7.2130    0.0000 </r>
       <r>    7.6311    0.0000 </r>
       <r>    8.0571    0.0000 </r>
       <r>    8.2996    0.0000 </r>
       <r>    8.5761    0.0000 </r>
       <r>    9.1002    0.0000 </r>
      </set>
      <set comment="kpoint 2">
       <r>  -35.8487    1.0000 </r>
       <r>  -35.8416    1.0000 </r>
       <r>  -17.0635    1.0000 </r>
       <r>  -16.9465    1.0000 </r>
       <r>  -16.8646    1.0000 </r>
       <r>  -16.8471    1.0000 </r>
       <r>  -16.8084    1.0000 </r>
       <r>  -16.7990    1.0000 </r>
       <r>   -8.3932    1.0000 </r>
       <r>   -7.6357    1.0000 </r>
       <r>   -1.9848    1.0000 </r>
       <r>   -1.8439    1.0000 </r>
       <r>   -1.7783    1.0000 </r>
       <r>    0.3040    1.0000 </r>
       <r>    0.9102    1.0000 </r>
       <r>    1.4729    1.0000 </r>
       <r>    1.8225    1.0000 </r>
       <r>    2.2883    1.0000 </r>
       <r>    3.1812    1.0000 </r>
       <r>    3.8792    1.0000 </r>
       <r>    3.9303    1.0000 </r>
       <r>    4.3194    1.0000 </r>
       <r>    4.3678    1.0000 </r>
       <r>    4.5323    1.0000 </r>
       <r>    4.5691    1.0000 </r>
       <r>    5.0549    0.0000 </r>
       <r>    5.0738    0.0000 </r>
       <r>    6.0906    0.0000 </r>
       <r>    6.2684    0.0000 </r>
       <r>    7.1772    0.0000 </r>
       <r>    7.3135    0.0000 </r>
       <r>    7.8321    0.0000 </r>
       <r>    8.1417    0.0000 </r>
       <r>    8.2292    0.0000 </r>
       <r>    8.5564    0.0000 </r>
      </set>
      <set comment="kpoint 3">
       <r>  -35.8457    1.0000 </r>
       <r>  -35.8386    1.0000 </r>
       <r>  -17.0582    1.0000 </r>
       <r>  -16.9430    1.0000 </r>
       <r>  -16.8609    1.0000 </r>
       <r>  -16.8514    1.0000 </r>
       <r>  -16.8437    1.0000 </r>
       <r>  -16.8404    1.0000 </r>
       <r>   -8.1080    1.0000 </r>
       <r>   -7.4398    1.0000 </r>
       <r>   -3.0121    1.0000 </r>
       <r>   -2.7236    1.0000 </r>
       <r>   -1.3889    1.0000 </r>
       <r>    0.6414    1.0000 </r>
       <r>    1.2065    1.0000 </r>
       <r>    1.5472    1.0000 </r>
       <r>    2.0992    1.0000 </r>
       <r>    2.7381    1.0000 </r>
       <r>    3.5782    1.0000 </r>
       <r>    3.9713    1.0000 </r>
       <r>    4.0687    1.0000 </r>
       <r>    4.2373    1.0000 </r>
       <r>    4.3869    1.0000 </r>
       <r>    4.5141    1.0000 </r>
       <r>    4.5612    1.0000 </r>
       <r>    4.8852    1.0000 </r>
       <r>    5.6051    0.0000 </r>
       <r>    6.3365    0.0000 </r>
       <r>    6.6070    0.0000 </r>
       <r>    6.8849    0.0000 </r>
       <r>    6.9693    0.0000 </r>
       <r>    7.0833    0.0000 </r>
       <r>    7.4012    0.0000 </r>
       <r>    7.6725    0.0000 </r>
       <r>    8.4667    0.0000 </r>
      </set>
      <set comment="kpoint 4">
       <r>  -35.8422    1.0000 </r>
       <r>  -35.8352    1.0000 </r>
       <r>  -17.0520    1.0000 </r>
       <r>  -16.9389    1.0000 </r>
       <r>  -16.8997    1.0000 </r>
       <r>  -16.8870    1.0000 </r>
       <r>  -16.8566    1.0000 </r>
       <r>  -16.8399    1.0000 </r>
       <r>   -7.6798    1.0000 </r>
       <r>   -7.1642    1.0000 </r>
       <r>   -4.1143    1.0000 </r>
       <r>   -3.4931    1.0000 </r>
       <r>   -0.7692    1.0000 </r>
       <r>    1.1927    1.0000 </r>
       <r>    1.6369    1.0000 </r>
       <r>    1.6495    1.0000 </r>
       <r>    1.6734    1.0000 </r>
       <r>    3.4944    1.0000 </r>
       <r>    3.7601    1.0000 </r>
       <r>    3.9319    1.0000 </r>
       <r>    4.0289    1.0000 </r>
       <r>    4.0907    1.0000 </r>
       <r>    4.2614    1.0000 </r>
       <r>    4.4671    1.0000 </r>
       <r>    4.4970    1.0000 </r>
       <r>    4.9680    1.0000 </r>
       <r>    5.4477    0.0000 </r>
       <r>    5.9836    0.0000 </r>
       <r>    6.0093    0.0000 </r>
       <r>    6.9549    0.0000 </r>
       <r>    6.9770    0.0000 </r>
       <r>    7.0222    0.0000 </r>
       <r>    7.4427    0.0000 </r>
       <r>    7.6541    0.0000 </r>
       <r>    7.9852    0.0000 </r>
      </set>
      <set comment="kpoint 5">
       <r>  -35.8399    1.0000 </r>
       <r>  -35.8330    1.0000 </r>
       <r>  -17.0480    1.0000 </r>
       <r>  -16.9363    1.0000 </r>
       <r>  -16.9310    1.0000 </r>
       <r>  -16.9172    1.0000 </r>
       <r>  -16.8537    1.0000 </r>
       <r>  -16.8374    1.0000 </r>
       <r>   -7.2647    1.0000 </r>
       <r>   -6.9321    1.0000 </r>
       <r>   -4.8818    1.0000 </r>
       <r>   -4.0025    1.0000 </r>
       <r>    0.0220    1.0000 </r>
       <r>    0.9111    1.0000 </r>
       <r>    1.6986    1.0000 </r>
       <r>    1.9342    1.0000 </r>
       <r>    2.1979    1.0000 </r>
       <r>    2.8285    1.0000 </r>
       <r>    3.4506    1.0000 </r>
       <r>    3.9479    1.0000 </r>
       <r>    4.0752    1.0000 </r>
       <r>    4.3478    1.0000 </r>
       <r>    4.4880    1.0000 </r>
       <r>    4.5216    1.0000 </r>
       <r>    4.6005    1.0000 </r>
       <r>    4.9734    1.0000 </r>
       <r>    5.0488    0.0004 </r>
       <r>    5.5519    0.0000 </r>
       <r>    6.1370    0.0000 </r>
       <r>    6.2971    0.0000 </r>
       <r>    6.8081    0.0000 </r>
       <r>    6.8733    0.0000 </r>
       <r>    7.2669    0.0000 </r>
       <r>    7.7613    0.0000 </r>
       <r>    8.3016    0.0000 </r>
      </set>
      <set comment="kpoint 6">
       <r>  -35.8497    1.0000 </r>
       <r>  -35.8426    1.0000 </r>
       <r>  -17.0633    1.0000 </r>
       <r>  -16.9474    1.0000 </r>
       <r>  -16.8762    1.0000 </r>
       <r>  -16.8551    1.0000 </r>
       <r>  -16.7915    1.0000 </r>
       <r>  -16.7828    1.0000 </r>
       <r>   -8.4379    1.0000 </r>
       <r>   -7.7164    1.0000 </r>
       <r>   -1.8091    1.0000 </r>
       <r>   -1.6465    1.0000 </r>
       <r>   -1.1784    1.0000 </r>
       <r>    0.1366    1.0000 </r>
       <r>    0.3230    1.0000 </r>
       <r>    1.2981    1.0000 </r>
       <r>    1.3881    1.0000 </r>
       <r>    2.3728    1.0000 </r>
       <r>    3.4974    1.0000 </r>
       <r>    3.9086    1.0000 </r>
       <r>    3.9216    1.0000 </r>
       <r>    4.3005    1.0000 </r>
       <r>    4.3133    1.0000 </r>
       <r>    4.4818    1.0000 </r>
       <r>    4.6098    1.0000 </r>
       <r>    5.0225    0.6296 </r>
       <r>    5.2061    0.0000 </r>
       <r>    5.8906    0.0000 </r>
       <r>    6.4622    0.0000 </r>
       <r>    6.8423    0.0000 </r>
       <r>    7.4745    0.0000 </r>
       <r>    7.8708    0.0000 </r>
       <r>    8.1231    0.0000 </r>
       <r>    8.5320    0.0000 </r>
       <r>    8.6629    0.0000 </r>
      </set>
      <set comment="kpoint 7">
       <r>  -35.8485    1.0000 </r>
       <r>  -35.8414    1.0000 </r>
       <r>  -17.0612    1.0000 </r>
       <r>  -16.9460    1.0000 </r>
       <r>  -16.8743    1.0000 </r>
       <r>  -16.8535    1.0000 </r>
       <r>  -16.8084    1.0000 </r>
       <r>  -16.7991    1.0000 </r>
       <r>   -8.3404    1.0000 </r>
       <r>   -7.6474    1.0000 </r>
       <r>   -1.9741    1.0000 </r>
       <r>   -1.8405    1.0000 </r>
       <r>   -1.6793    1.0000 </r>
       <r>    0.2489    1.0000 </r>
       <r>    0.4355    1.0000 </r>
       <r>    1.4168    1.0000 </r>
       <r>    1.8884    1.0000 </r>
       <r>    2.3270    1.0000 </r>
       <r>    3.6037    1.0000 </r>
       <r>    3.9383    1.0000 </r>
       <r>    3.9741    1.0000 </r>
       <r>    4.3333    1.0000 </r>
       <r>    4.4298    1.0000 </r>
       <r>    4.5627    1.0000 </r>
       <r>    4.5966    1.0000 </r>
       <r>    5.0470    0.0009 </r>
       <r>    5.2473    0.0000 </r>
       <r>    6.0870    0.0000 </r>
       <r>    6.5357    0.0000 </r>
       <r>    6.8312    0.0000 </r>
       <r>    7.3470    0.0000 </r>
       <r>    7.4455    0.0000 </r>
       <r>    7.5644    0.0000 </r>
       <r>    8.3270    0.0000 </r>
       <r>    8.5489    0.0000 </r>
      </set>
      <set comment="kpoint 8">
       <r>  -35.8455    1.0000 </r>
       <r>  -35.8385    1.0000 </r>
       <r>  -17.0559    1.0000 </r>
       <r>  -16.9425    1.0000 </r>
       <r>  -16.8697    1.0000 </r>
       <r>  -16.8506    1.0000 </r>
       <r>  -16.8496    1.0000 </r>
       <r>  -16.8397    1.0000 </r>
       <r>   -8.0572    1.0000 </r>
       <r>   -7.4522    1.0000 </r>
       <r>   -3.0035    1.0000 </r>
       <r>   -2.7088    1.0000 </r>
       <r>   -1.2972    1.0000 </r>
       <r>    0.5814    1.0000 </r>
       <r>    0.7592    1.0000 </r>
       <r>    1.4919    1.0000 </r>
       <r>    2.1419    1.0000 </r>
       <r>    2.8242    1.0000 </r>
       <r>    3.8612    1.0000 </r>
       <r>    3.9864    1.0000 </r>
       <r>    4.1160    1.0000 </r>
       <r>    4.2653    1.0000 </r>
       <r>    4.3856    1.0000 </r>
       <r>    4.5307    1.0000 </r>
       <r>    4.5662    1.0000 </r>
       <r>    4.8841    1.0000 </r>
       <r>    5.7283    0.0000 </r>
       <r>    6.2570    0.0000 </r>
       <r>    6.7904    0.0000 </r>
       <r>    6.8399    0.0000 </r>
       <r>    6.8465    0.0000 </r>
       <r>    6.8735    0.0000 </r>
       <r>    7.0745    0.0000 </r>
       <r>    7.8465    0.0000 </r>
       <r>    8.0974    0.0000 </r>
      </set>
      <set comment="kpoint 9">
       <r>  -35.8421    1.0000 </r>
       <r>  -35.8351    1.0000 </r>
       <r>  -17.0499    1.0000 </r>
       <r>  -16.9384    1.0000 </r>
       <r>  -16.8987    1.0000 </r>
       <r>  -16.8861    1.0000 </r>
       <r>  -16.8639    1.0000 </r>
       <r>  -16.8444    1.0000 </r>
       <r>   -7.6306    1.0000 </r>
       <r>   -7.1786    1.0000 </r>
       <r>   -4.1048    1.0000 </r>
       <r>   -3.4733    1.0000 </r>
       <r>   -0.6872    1.0000 </r>
       <r>    1.1244    1.0000 </r>
       <r>    1.2607    1.0000 </r>
       <r>    1.5818    1.0000 </r>
       <r>    1.6972    1.0000 </r>
       <r>    3.5843    1.0000 </r>
       <r>    3.6972    1.0000 </r>
       <r>    3.8165    1.0000 </r>
       <r>    4.0539    1.0000 </r>
       <r>    4.2270    1.0000 </r>
       <r>    4.2646    1.0000 </r>
       <r>    4.4506    1.0000 </r>
       <r>    4.5116    1.0000 </r>
       <r>    4.9735    1.0000 </r>
       <r>    5.3750    0.0000 </r>
       <r>    5.5560    0.0000 </r>
       <r>    6.6984    0.0000 </r>
       <r>    6.8511    0.0000 </r>
       <r>    6.8795    0.0000 </r>
       <r>    7.1970    0.0000 </r>
       <r>    7.5004    0.0000 </r>
       <r>    7.6273    0.0000 </r>
       <r>    7.8411    0.0000 </r>
      </set>
      <set comment="kpoint 10">
       <r>  -35.8398    1.0000 </r>
       <r>  -35.8329    1.0000 </r>
       <r>  -17.0459    1.0000 </r>
       <r>  -16.9358    1.0000 </r>
       <r>  -16.9295    1.0000 </r>
       <r>  -16.9159    1.0000 </r>
       <r>  -16.8604    1.0000 </r>
       <r>  -16.8414    1.0000 </r>
       <r>   -7.2143    1.0000 </r>
       <r>   -6.9493    1.0000 </r>
       <r>   -4.8746    1.0000 </r>
       <r>   -3.9782    1.0000 </r>
       <r>    0.0989    1.0000 </r>
       <r>    0.9588    1.0000 </r>
       <r>    1.6433    1.0000 </r>
       <r>    1.8107    1.0000 </r>
       <r>    1.8574    1.0000 </r>
       <r>    2.7514    1.0000 </r>
       <r>    3.2617    1.0000 </r>
       <r>    3.9856    1.0000 </r>
       <r>    4.1078    1.0000 </r>
       <r>    4.2830    1.0000 </r>
       <r>    4.4078    1.0000 </r>
       <r>    4.4991    1.0000 </r>
       <r>    4.6499    1.0000 </r>
       <r>    4.9821    1.0000 </r>
       <r>    5.0207    0.7233 </r>
       <r>    5.2573    0.0000 </r>
       <r>    6.5301    0.0000 </r>
       <r>    6.7519    0.0000 </r>
       <r>    6.9371    0.0000 </r>
       <r>    6.9449    0.0000 </r>
       <r>    7.1144    0.0000 </r>
       <r>    8.2504    0.0000 </r>
       <r>    8.3280    0.0000 </r>
      </set>
      <set comment="kpoint 11">
       <r>  -35.8492    1.0000 </r>
       <r>  -35.8422    1.0000 </r>
       <r>  -17.0587    1.0000 </r>
       <r>  -16.9464    1.0000 </r>
       <r>  -16.8961    1.0000 </r>
       <r>  -16.8684    1.0000 </r>
       <r>  -16.7918    1.0000 </r>
       <r>  -16.7833    1.0000 </r>
       <r>   -8.3269    1.0000 </r>
       <r>   -7.7393    1.0000 </r>
       <r>   -1.6284    1.0000 </r>
       <r>   -1.5927    1.0000 </r>
       <r>   -1.1883    1.0000 </r>
       <r>   -0.3474    1.0000 </r>
       <r>    0.0373    1.0000 </r>
       <r>    1.2815    1.0000 </r>
       <r>    1.4085    1.0000 </r>
       <r>    2.4685    1.0000 </r>
       <r>    3.9334    1.0000 </r>
       <r>    4.2070    1.0000 </r>
       <r>    4.2580    1.0000 </r>
       <r>    4.2736    1.0000 </r>
       <r>    4.3478    1.0000 </r>
       <r>    4.6498    1.0000 </r>
       <r>    4.7678    1.0000 </r>
       <r>    5.1940    0.0000 </r>
       <r>    5.3330    0.0000 </r>
       <r>    5.6532    0.0000 </r>
       <r>    5.8931    0.0000 </r>
       <r>    6.6372    0.0000 </r>
       <r>    7.2433    0.0000 </r>
       <r>    8.0152    0.0000 </r>
       <r>    8.1579    0.0000 </r>
       <r>    8.1762    0.0000 </r>
       <r>    8.5791    0.0000 </r>
      </set>
      <set comment="kpoint 12">
       <r>  -35.8481    1.0000 </r>
       <r>  -35.8411    1.0000 </r>
       <r>  -17.0566    1.0000 </r>
       <r>  -16.9450    1.0000 </r>
       <r>  -16.8934    1.0000 </r>
       <r>  -16.8661    1.0000 </r>
       <r>  -16.8083    1.0000 </r>
       <r>  -16.7992    1.0000 </r>
       <r>   -8.2312    1.0000 </r>
       <r>   -7.6706    1.0000 </r>
       <r>   -1.9516    1.0000 </r>
       <r>   -1.8336    1.0000 </r>
       <r>   -1.4688    1.0000 </r>
       <r>   -0.2290    1.0000 </r>
       <r>    0.1448    1.0000 </r>
       <r>    1.3108    1.0000 </r>
       <r>    1.9883    1.0000 </r>
       <r>    2.4252    1.0000 </r>
       <r>    3.9551    1.0000 </r>
       <r>    4.2250    1.0000 </r>
       <r>    4.2789    1.0000 </r>
       <r>    4.3557    1.0000 </r>
       <r>    4.5370    1.0000 </r>
       <r>    4.5601    1.0000 </r>
       <r>    4.7412    1.0000 </r>
       <r>    5.0296    0.2514 </r>
       <r>    5.5294    0.0000 </r>
       <r>    5.7274    0.0000 </r>
       <r>    6.0680    0.0000 </r>
       <r>    6.6389    0.0000 </r>
       <r>    7.2408    0.0000 </r>
       <r>    7.2530    0.0000 </r>
       <r>    7.7023    0.0000 </r>
       <r>    8.3954    0.0000 </r>
       <r>    8.6268    0.0000 </r>
      </set>
      <set comment="kpoint 13">
       <r>  -35.8451    1.0000 </r>
       <r>  -35.8382    1.0000 </r>
       <r>  -17.0514    1.0000 </r>
       <r>  -16.9414    1.0000 </r>
       <r>  -16.8867    1.0000 </r>
       <r>  -16.8604    1.0000 </r>
       <r>  -16.8496    1.0000 </r>
       <r>  -16.8390    1.0000 </r>
       <r>   -7.9525    1.0000 </r>
       <r>   -7.4769    1.0000 </r>
       <r>   -2.9858    1.0000 </r>
       <r>   -2.6773    1.0000 </r>
       <r>   -1.1033    1.0000 </r>
       <r>    0.1140    1.0000 </r>
       <r>    0.4630    1.0000 </r>
       <r>    1.3868    1.0000 </r>
       <r>    2.2500    1.0000 </r>
       <r>    2.9260    1.0000 </r>
       <r>    4.0200    1.0000 </r>
       <r>    4.1956    1.0000 </r>
       <r>    4.2133    1.0000 </r>
       <r>    4.3765    1.0000 </r>
       <r>    4.3975    1.0000 </r>
       <r>    4.4800    1.0000 </r>
       <r>    4.6510    1.0000 </r>
       <r>    4.8784    1.0000 </r>
       <r>    5.6552    0.0000 </r>
       <r>    5.9456    0.0000 </r>
       <r>    6.2074    0.0000 </r>
       <r>    6.7291    0.0000 </r>
       <r>    6.8397    0.0000 </r>
       <r>    7.1078    0.0000 </r>
       <r>    7.4173    0.0000 </r>
       <r>    8.0184    0.0000 </r>
       <r>    8.2699    0.0000 </r>
      </set>
      <set comment="kpoint 14">
       <r>  -35.8418    1.0000 </r>
       <r>  -35.8349    1.0000 </r>
       <r>  -17.0455    1.0000 </r>
       <r>  -16.9373    1.0000 </r>
       <r>  -16.8965    1.0000 </r>
       <r>  -16.8843    1.0000 </r>
       <r>  -16.8786    1.0000 </r>
       <r>  -16.8536    1.0000 </r>
       <r>   -7.5293    1.0000 </r>
       <r>   -7.2073    1.0000 </r>
       <r>   -4.0854    1.0000 </r>
       <r>   -3.4318    1.0000 </r>
       <r>   -0.5184    1.0000 </r>
       <r>    0.6409    1.0000 </r>
       <r>    0.9816    1.0000 </r>
       <r>    1.4768    1.0000 </r>
       <r>    1.8222    1.0000 </r>
       <r>    3.5933    1.0000 </r>
       <r>    3.6056    1.0000 </r>
       <r>    3.7147    1.0000 </r>
       <r>    4.1150    1.0000 </r>
       <r>    4.1524    1.0000 </r>
       <r>    4.4058    1.0000 </r>
       <r>    4.4443    1.0000 </r>
       <r>    4.4777    1.0000 </r>
       <r>    4.9840    1.0000 </r>
       <r>    5.2659    0.0000 </r>
       <r>    5.2958    0.0000 </r>
       <r>    6.6405    0.0000 </r>
       <r>    6.7655    0.0000 </r>
       <r>    7.3753    0.0000 </r>
       <r>    7.4860    0.0000 </r>
       <r>    7.5857    0.0000 </r>
       <r>    7.6163    0.0000 </r>
       <r>    8.1972    0.0000 </r>
      </set>
      <set comment="kpoint 15">
       <r>  -35.8396    1.0000 </r>
       <r>  -35.8328    1.0000 </r>
       <r>  -17.0416    1.0000 </r>
       <r>  -16.9347    1.0000 </r>
       <r>  -16.9265    1.0000 </r>
       <r>  -16.9134    1.0000 </r>
       <r>  -16.8737    1.0000 </r>
       <r>  -16.8494    1.0000 </r>
       <r>   -7.1103    1.0000 </r>
       <r>   -6.9835    1.0000 </r>
       <r>   -4.8600    1.0000 </r>
       <r>   -3.9278    1.0000 </r>
       <r>    0.2310    1.0000 </r>
       <r>    1.1111    1.0000 </r>
       <r>    1.2010    1.0000 </r>
       <r>    1.5376    1.0000 </r>
       <r>    1.6580    1.0000 </r>
       <r>    2.6804    1.0000 </r>
       <r>    2.9596    1.0000 </r>
       <r>    3.9865    1.0000 </r>
       <r>    4.1204    1.0000 </r>
       <r>    4.1915    1.0000 </r>
       <r>    4.2180    1.0000 </r>
       <r>    4.4358    1.0000 </r>
       <r>    4.7303    1.0000 </r>
       <r>    4.9988    0.9999 </r>
       <r>    5.0159    0.8988 </r>
       <r>    5.0322    0.1508 </r>
       <r>    6.6499    0.0000 </r>
       <r>    6.9545    0.0000 </r>
       <r>    7.1265    0.0000 </r>
       <r>    7.1652    0.0000 </r>
       <r>    7.9899    0.0000 </r>
       <r>    8.0923    0.0000 </r>
       <r>    8.4506    0.0000 </r>
      </set>
      <set comment="kpoint 16">
       <r>  -35.8490    1.0000 </r>
       <r>  -35.8420    1.0000 </r>
       <r>  -17.0564    1.0000 </r>
       <r>  -16.9460    1.0000 </r>
       <r>  -16.9060    1.0000 </r>
       <r>  -16.8750    1.0000 </r>
       <r>  -16.7920    1.0000 </r>
       <r>  -16.7836    1.0000 </r>
       <r>   -8.2695    1.0000 </r>
       <r>   -7.7508    1.0000 </r>
       <r>   -1.6193    1.0000 </r>
       <r>   -1.4771    1.0000 </r>
       <r>   -1.1933    1.0000 </r>
       <r>   -0.6182    1.0000 </r>
       <r>   -0.0087    1.0000 </r>
       <r>    1.2310    1.0000 </r>
       <r>    1.4640    1.0000 </r>
       <r>    2.5324    1.0000 </r>
       <r>    3.9393    1.0000 </r>
       <r>    4.2535    1.0000 </r>
       <r>    4.3627    1.0000 </r>
       <r>    4.5995    1.0000 </r>
       <r>    4.7240    1.0000 </r>
       <r>    4.7413    1.0000 </r>
       <r>    4.8596    1.0000 </r>
       <r>    4.8907    1.0000 </r>
       <r>    5.1868    0.0000 </r>
       <r>    5.6783    0.0000 </r>
       <r>    5.8574    0.0000 </r>
       <r>    5.8945    0.0000 </r>
       <r>    7.5389    0.0000 </r>
       <r>    7.8495    0.0000 </r>
       <r>    7.9268    0.0000 </r>
       <r>    8.4333    0.0000 </r>
       <r>    8.7756    0.0000 </r>
      </set>
      <set comment="kpoint 17">
       <r>  -35.8479    1.0000 </r>
       <r>  -35.8409    1.0000 </r>
       <r>  -17.0544    1.0000 </r>
       <r>  -16.9445    1.0000 </r>
       <r>  -16.9029    1.0000 </r>
       <r>  -16.8724    1.0000 </r>
       <r>  -16.8082    1.0000 </r>
       <r>  -16.7992    1.0000 </r>
       <r>   -8.1748    1.0000 </r>
       <r>   -7.6822    1.0000 </r>
       <r>   -1.9398    1.0000 </r>
       <r>   -1.8299    1.0000 </r>
       <r>   -1.3565    1.0000 </r>
       <r>   -0.4983    1.0000 </r>
       <r>    0.0951    1.0000 </r>
       <r>    1.2604    1.0000 </r>
       <r>    2.0373    1.0000 </r>
       <r>    2.4908    1.0000 </r>
       <r>    3.9639    1.0000 </r>
       <r>    4.3646    1.0000 </r>
       <r>    4.4559    1.0000 </r>
       <r>    4.5199    1.0000 </r>
       <r>    4.6114    1.0000 </r>
       <r>    4.6865    1.0000 </r>
       <r>    4.8321    1.0000 </r>
       <r>    5.0200    0.7547 </r>
       <r>    5.1283    0.0000 </r>
       <r>    5.6790    0.0000 </r>
       <r>    6.0563    0.0000 </r>
       <r>    6.1268    0.0000 </r>
       <r>    7.1711    0.0000 </r>
       <r>    7.6228    0.0000 </r>
       <r>    7.8327    0.0000 </r>
       <r>    8.0794    0.0000 </r>
       <r>    8.6216    0.0000 </r>
      </set>
      <set comment="kpoint 18">
       <r>  -35.8450    1.0000 </r>
       <r>  -35.8381    1.0000 </r>
       <r>  -17.0492    1.0000 </r>
       <r>  -16.9409    1.0000 </r>
       <r>  -16.8950    1.0000 </r>
       <r>  -16.8658    1.0000 </r>
       <r>  -16.8491    1.0000 </r>
       <r>  -16.8388    1.0000 </r>
       <r>   -7.8984    1.0000 </r>
       <r>   -7.4893    1.0000 </r>
       <r>   -2.9767    1.0000 </r>
       <r>   -2.6606    1.0000 </r>
       <r>   -1.0007    1.0000 </r>
       <r>   -0.1500    1.0000 </r>
       <r>    0.4042    1.0000 </r>
       <r>    1.3367    1.0000 </r>
       <r>    2.3220    1.0000 </r>
       <r>    2.9732    1.0000 </r>
       <r>    4.0388    1.0000 </r>
       <r>    4.2236    1.0000 </r>
       <r>    4.2532    1.0000 </r>
       <r>    4.3687    1.0000 </r>
       <r>    4.4591    1.0000 </r>
       <r>    4.5949    1.0000 </r>
       <r>    4.6596    1.0000 </r>
       <r>    4.8739    1.0000 </r>
       <r>    5.4922    0.0000 </r>
       <r>    5.7236    0.0000 </r>
       <r>    6.0548    0.0000 </r>
       <r>    6.6783    0.0000 </r>
       <r>    6.8840    0.0000 </r>
       <r>    7.1100    0.0000 </r>
       <r>    8.0155    0.0000 </r>
       <r>    8.4593    0.0000 </r>
       <r>    8.9824    0.0000 </r>
      </set>
      <set comment="kpoint 19">
       <r>  -35.8417    1.0000 </r>
       <r>  -35.8348    1.0000 </r>
       <r>  -17.0433    1.0000 </r>
       <r>  -16.9368    1.0000 </r>
       <r>  -16.8952    1.0000 </r>
       <r>  -16.8861    1.0000 </r>
       <r>  -16.8833    1.0000 </r>
       <r>  -16.8583    1.0000 </r>
       <r>   -7.4770    1.0000 </r>
       <r>   -7.2217    1.0000 </r>
       <r>   -4.0753    1.0000 </r>
       <r>   -3.4100    1.0000 </r>
       <r>   -0.4318    1.0000 </r>
       <r>    0.3829    1.0000 </r>
       <r>    0.9076    1.0000 </r>
       <r>    1.4266    1.0000 </r>
       <r>    1.9071    1.0000 </r>
       <r>    3.5481    1.0000 </r>
       <r>    3.5734    1.0000 </r>
       <r>    3.6987    1.0000 </r>
       <r>    4.0812    1.0000 </r>
       <r>    4.1563    1.0000 </r>
       <r>    4.3723    1.0000 </r>
       <r>    4.3775    1.0000 </r>
       <r>    4.5712    1.0000 </r>
       <r>    4.9888    1.0000 </r>
       <r>    5.1499    0.0000 </r>
       <r>    5.3012    0.0000 </r>
       <r>    6.5324    0.0000 </r>
       <r>    6.7489    0.0000 </r>
       <r>    7.3441    0.0000 </r>
       <r>    7.4591    0.0000 </r>
       <r>    7.6670    0.0000 </r>
       <r>    8.2637    0.0000 </r>
       <r>    8.3291    0.0000 </r>
      </set>
      <set comment="kpoint 20">
       <r>  -35.8395    1.0000 </r>
       <r>  -35.8327    1.0000 </r>
       <r>  -17.0395    1.0000 </r>
       <r>  -16.9341    1.0000 </r>
       <r>  -16.9250    1.0000 </r>
       <r>  -16.9121    1.0000 </r>
       <r>  -16.8803    1.0000 </r>
       <r>  -16.8534    1.0000 </r>
       <r>   -7.0566    1.0000 </r>
       <r>   -7.0005    1.0000 </r>
       <r>   -4.8525    1.0000 </r>
       <r>   -3.9017    1.0000 </r>
       <r>    0.2828    1.0000 </r>
       <r>    0.9423    1.0000 </r>
       <r>    1.2269    1.0000 </r>
       <r>    1.4871    1.0000 </r>
       <r>    1.5456    1.0000 </r>
       <r>    2.6724    1.0000 </r>
       <r>    2.8298    1.0000 </r>
       <r>    3.9737    1.0000 </r>
       <r>    3.9840    1.0000 </r>
       <r>    4.1450    1.0000 </r>
       <r>    4.2637    1.0000 </r>
       <r>    4.3742    1.0000 </r>
       <r>    4.7650    1.0000 </r>
       <r>    4.9585    1.0000 </r>
       <r>    5.0068    0.9947 </r>
       <r>    5.0288    0.2919 </r>
       <r>    6.6218    0.0000 </r>
       <r>    6.9036    0.0000 </r>
       <r>    7.2677    0.0000 </r>
       <r>    7.5256    0.0000 </r>
       <r>    7.8457    0.0000 </r>
       <r>    8.4304    0.0000 </r>
       <r>    8.6412    0.0000 </r>
      </set>
      <set comment="kpoint 21">
       <r>  -35.8488    1.0000 </r>
       <r>  -35.8438    1.0000 </r>
       <r>  -17.0486    1.0000 </r>
       <r>  -16.9654    1.0000 </r>
       <r>  -16.8636    1.0000 </r>
       <r>  -16.8510    1.0000 </r>
       <r>  -16.7901    1.0000 </r>
       <r>  -16.7839    1.0000 </r>
       <r>   -8.3950    1.0000 </r>
       <r>   -7.8442    1.0000 </r>
       <r>   -1.5937    1.0000 </r>
       <r>   -1.5278    1.0000 </r>
       <r>   -1.2546    1.0000 </r>
       <r>    0.2671    1.0000 </r>
       <r>    0.7006    1.0000 </r>
       <r>    0.7041    1.0000 </r>
       <r>    1.3595    1.0000 </r>
       <r>    2.0882    1.0000 </r>
       <r>    3.1475    1.0000 </r>
       <r>    3.6375    1.0000 </r>
       <r>    4.1537    1.0000 </r>
       <r>    4.4234    1.0000 </r>
       <r>    4.4625    1.0000 </r>
       <r>    4.5198    1.0000 </r>
       <r>    4.7430    1.0000 </r>
       <r>    5.1186    0.0000 </r>
       <r>    5.2480    0.0000 </r>
       <r>    5.5089    0.0000 </r>
       <r>    6.2875    0.0000 </r>
       <r>    6.9121    0.0000 </r>
       <r>    7.7053    0.0000 </r>
       <r>    7.8794    0.0000 </r>
       <r>    8.1717    0.0000 </r>
       <r>    8.2268    0.0000 </r>
       <r>    8.7170    0.0000 </r>
      </set>
      <set comment="kpoint 22">
       <r>  -35.8477    1.0000 </r>
       <r>  -35.8426    1.0000 </r>
       <r>  -17.0466    1.0000 </r>
       <r>  -16.9639    1.0000 </r>
       <r>  -16.8621    1.0000 </r>
       <r>  -16.8497    1.0000 </r>
       <r>  -16.8071    1.0000 </r>
       <r>  -16.8004    1.0000 </r>
       <r>   -8.2994    1.0000 </r>
       <r>   -7.7686    1.0000 </r>
       <r>   -1.9880    1.0000 </r>
       <r>   -1.8693    1.0000 </r>
       <r>   -1.3753    1.0000 </r>
       <r>    0.3793    1.0000 </r>
       <r>    0.7787    1.0000 </r>
       <r>    0.8039    1.0000 </r>
       <r>    1.8848    1.0000 </r>
       <r>    2.1590    1.0000 </r>
       <r>    3.2746    1.0000 </r>
       <r>    3.7416    1.0000 </r>
       <r>    4.1069    1.0000 </r>
       <r>    4.3250    1.0000 </r>
       <r>    4.4855    1.0000 </r>
       <r>    4.5452    1.0000 </r>
       <r>    4.8594    1.0000 </r>
       <r>    5.0325    0.1392 </r>
       <r>    5.4680    0.0000 </r>
       <r>    5.7079    0.0000 </r>
       <r>    6.3758    0.0000 </r>
       <r>    6.9283    0.0000 </r>
       <r>    7.4970    0.0000 </r>
       <r>    7.5837    0.0000 </r>
       <r>    7.7585    0.0000 </r>
       <r>    8.1934    0.0000 </r>
       <r>    8.5951    0.0000 </r>
      </set>
      <set comment="kpoint 23">
       <r>  -35.8446    1.0000 </r>
       <r>  -35.8396    1.0000 </r>
       <r>  -17.0415    1.0000 </r>
       <r>  -16.9601    1.0000 </r>
       <r>  -16.8584    1.0000 </r>
       <r>  -16.8498    1.0000 </r>
       <r>  -16.8462    1.0000 </r>
       <r>  -16.8420    1.0000 </r>
       <r>   -8.0232    1.0000 </r>
       <r>   -7.5537    1.0000 </r>
       <r>   -2.9830    1.0000 </r>
       <r>   -2.7938    1.0000 </r>
       <r>   -1.0028    1.0000 </r>
       <r>    0.7126    1.0000 </r>
       <r>    0.9794    1.0000 </r>
       <r>    1.1092    1.0000 </r>
       <r>    2.1519    1.0000 </r>
       <r>    2.6845    1.0000 </r>
       <r>    3.5995    1.0000 </r>
       <r>    3.9696    1.0000 </r>
       <r>    4.0673    1.0000 </r>
       <r>    4.1436    1.0000 </r>
       <r>    4.3071    1.0000 </r>
       <r>    4.6489    1.0000 </r>
       <r>    4.8003    1.0000 </r>
       <r>    4.9250    1.0000 </r>
       <r>    5.9073    0.0000 </r>
       <r>    6.1572    0.0000 </r>
       <r>    6.7473    0.0000 </r>
       <r>    6.7597    0.0000 </r>
       <r>    6.9695    0.0000 </r>
       <r>    6.9946    0.0000 </r>
       <r>    7.0717    0.0000 </r>
       <r>    7.8401    0.0000 </r>
       <r>    8.1418    0.0000 </r>
      </set>
      <set comment="kpoint 24">
       <r>  -35.8412    1.0000 </r>
       <r>  -35.8362    1.0000 </r>
       <r>  -17.0357    1.0000 </r>
       <r>  -16.9557    1.0000 </r>
       <r>  -16.8979    1.0000 </r>
       <r>  -16.8889    1.0000 </r>
       <r>  -16.8541    1.0000 </r>
       <r>  -16.8423    1.0000 </r>
       <r>   -7.6113    1.0000 </r>
       <r>   -7.2478    1.0000 </r>
       <r>   -4.0464    1.0000 </r>
       <r>   -3.6202    1.0000 </r>
       <r>   -0.4188    1.0000 </r>
       <r>    1.2418    1.0000 </r>
       <r>    1.2561    1.0000 </r>
       <r>    1.5952    1.0000 </r>
       <r>    1.8389    1.0000 </r>
       <r>    3.1733    1.0000 </r>
       <r>    3.7222    1.0000 </r>
       <r>    3.7942    1.0000 </r>
       <r>    3.8776    1.0000 </r>
       <r>    4.1857    1.0000 </r>
       <r>    4.3087    1.0000 </r>
       <r>    4.6459    1.0000 </r>
       <r>    4.7565    1.0000 </r>
       <r>    4.9114    1.0000 </r>
       <r>    5.6060    0.0000 </r>
       <r>    5.8336    0.0000 </r>
       <r>    6.1536    0.0000 </r>
       <r>    6.5338    0.0000 </r>
       <r>    6.9274    0.0000 </r>
       <r>    7.0344    0.0000 </r>
       <r>    7.4489    0.0000 </r>
       <r>    7.7127    0.0000 </r>
       <r>    8.0318    0.0000 </r>
      </set>
      <set comment="kpoint 25">
       <r>  -35.8389    1.0000 </r>
       <r>  -35.8340    1.0000 </r>
       <r>  -17.0318    1.0000 </r>
       <r>  -16.9529    1.0000 </r>
       <r>  -16.9289    1.0000 </r>
       <r>  -16.9192    1.0000 </r>
       <r>  -16.8514    1.0000 </r>
       <r>  -16.8398    1.0000 </r>
       <r>   -7.2185    1.0000 </r>
       <r>   -6.9835    1.0000 </r>
       <r>   -4.7819    1.0000 </r>
       <r>   -4.1724    1.0000 </r>
       <r>    0.2991    1.0000 </r>
       <r>    1.2202    1.0000 </r>
       <r>    1.4441    1.0000 </r>
       <r>    1.9810    1.0000 </r>
       <r>    2.1696    1.0000 </r>
       <r>    2.8648    1.0000 </r>
       <r>    3.2536    1.0000 </r>
       <r>    3.2672    1.0000 </r>
       <r>    4.0982    1.0000 </r>
       <r>    4.2979    1.0000 </r>
       <r>    4.6015    1.0000 </r>
       <r>    4.7517    1.0000 </r>
       <r>    4.8489    1.0000 </r>
       <r>    4.9559    1.0000 </r>
       <r>    5.1678    0.0000 </r>
       <r>    5.3542    0.0000 </r>
       <r>    5.9585    0.0000 </r>
       <r>    6.3211    0.0000 </r>
       <r>    6.4559    0.0000 </r>
       <r>    7.0397    0.0000 </r>
       <r>    7.6941    0.0000 </r>
       <r>    8.0296    0.0000 </r>
       <r>    8.0888    0.0000 </r>
      </set>
      <set comment="kpoint 26">
       <r>  -35.8486    1.0000 </r>
       <r>  -35.8436    1.0000 </r>
       <r>  -17.0466    1.0000 </r>
       <r>  -16.9647    1.0000 </r>
       <r>  -16.8731    1.0000 </r>
       <r>  -16.8582    1.0000 </r>
       <r>  -16.7902    1.0000 </r>
       <r>  -16.7841    1.0000 </r>
       <r>   -8.3484    1.0000 </r>
       <r>   -7.8427    1.0000 </r>
       <r>   -1.5863    1.0000 </r>
       <r>   -1.4464    1.0000 </r>
       <r>   -1.2569    1.0000 </r>
       <r>    0.1757    1.0000 </r>
       <r>    0.2652    1.0000 </r>
       <r>    0.7522    1.0000 </r>
       <r>    1.4068    1.0000 </r>
       <r>    2.1237    1.0000 </r>
       <r>    3.5099    1.0000 </r>
       <r>    3.7753    1.0000 </r>
       <r>    4.1524    1.0000 </r>
       <r>    4.4527    1.0000 </r>
       <r>    4.5029    1.0000 </r>
       <r>    4.5889    1.0000 </r>
       <r>    4.7367    1.0000 </r>
       <r>    5.0690    0.0000 </r>
       <r>    5.3946    0.0000 </r>
       <r>    5.5033    0.0000 </r>
       <r>    6.5566    0.0000 </r>
       <r>    6.7810    0.0000 </r>
       <r>    7.4412    0.0000 </r>
       <r>    7.5345    0.0000 </r>
       <r>    8.1838    0.0000 </r>
       <r>    8.4066    0.0000 </r>
       <r>    8.9535    0.0000 </r>
      </set>
      <set comment="kpoint 27">
       <r>  -35.8475    1.0000 </r>
       <r>  -35.8425    1.0000 </r>
       <r>  -17.0446    1.0000 </r>
       <r>  -16.9632    1.0000 </r>
       <r>  -16.8712    1.0000 </r>
       <r>  -16.8565    1.0000 </r>
       <r>  -16.8070    1.0000 </r>
       <r>  -16.8004    1.0000 </r>
       <r>   -8.2537    1.0000 </r>
       <r>   -7.7675    1.0000 </r>
       <r>   -1.9791    1.0000 </r>
       <r>   -1.8659    1.0000 </r>
       <r>   -1.2945    1.0000 </r>
       <r>    0.2868    1.0000 </r>
       <r>    0.3732    1.0000 </r>
       <r>    0.8306    1.0000 </r>
       <r>    1.9246    1.0000 </r>
       <r>    2.1960    1.0000 </r>
       <r>    3.6078    1.0000 </r>
       <r>    3.8652    1.0000 </r>
       <r>    4.1112    1.0000 </r>
       <r>    4.3528    1.0000 </r>
       <r>    4.5391    1.0000 </r>
       <r>    4.5653    1.0000 </r>
       <r>    4.8551    1.0000 </r>
       <r>    4.9962    1.0000 </r>
       <r>    5.6210    0.0000 </r>
       <r>    5.6884    0.0000 </r>
       <r>    6.6258    0.0000 </r>
       <r>    6.7039    0.0000 </r>
       <r>    7.3326    0.0000 </r>
       <r>    7.4322    0.0000 </r>
       <r>    7.6609    0.0000 </r>
       <r>    8.2716    0.0000 </r>
       <r>    8.6784    0.0000 </r>
      </set>
      <set comment="kpoint 28">
       <r>  -35.8445    1.0000 </r>
       <r>  -35.8395    1.0000 </r>
       <r>  -17.0395    1.0000 </r>
       <r>  -16.9593    1.0000 </r>
       <r>  -16.8667    1.0000 </r>
       <r>  -16.8525    1.0000 </r>
       <r>  -16.8490    1.0000 </r>
       <r>  -16.8413    1.0000 </r>
       <r>   -7.9796    1.0000 </r>
       <r>   -7.5540    1.0000 </r>
       <r>   -2.9751    1.0000 </r>
       <r>   -2.7824    1.0000 </r>
       <r>   -0.9247    1.0000 </r>
       <r>    0.6157    1.0000 </r>
       <r>    0.6838    1.0000 </r>
       <r>    1.0385    1.0000 </r>
       <r>    2.1939    1.0000 </r>
       <r>    2.7300    1.0000 </r>
       <r>    3.8194    1.0000 </r>
       <r>    4.0325    1.0000 </r>
       <r>    4.0576    1.0000 </r>
       <r>    4.1760    1.0000 </r>
       <r>    4.3112    1.0000 </r>
       <r>    4.6433    1.0000 </r>
       <r>    4.7917    1.0000 </r>
       <r>    4.9393    1.0000 </r>
       <r>    6.0023    0.0000 </r>
       <r>    6.0822    0.0000 </r>
       <r>    6.4726    0.0000 </r>
       <r>    6.6504    0.0000 </r>
       <r>    7.0114    0.0000 </r>
       <r>    7.0228    0.0000 </r>
       <r>    7.3901    0.0000 </r>
       <r>    7.8582    0.0000 </r>
       <r>    8.1075    0.0000 </r>
      </set>
      <set comment="kpoint 29">
       <r>  -35.8410    1.0000 </r>
       <r>  -35.8361    1.0000 </r>
       <r>  -17.0337    1.0000 </r>
       <r>  -16.9550    1.0000 </r>
       <r>  -16.8968    1.0000 </r>
       <r>  -16.8880    1.0000 </r>
       <r>  -16.8610    1.0000 </r>
       <r>  -16.8473    1.0000 </r>
       <r>   -7.5696    1.0000 </r>
       <r>   -7.2506    1.0000 </r>
       <r>   -4.0370    1.0000 </r>
       <r>   -3.6044    1.0000 </r>
       <r>   -0.3461    1.0000 </r>
[...]
        <r>  0.0000  0.0618  0.0000 </r>
        <r>  0.0000  0.0017  0.0000 </r>
       </set>
       <set comment="band 21">
        <r>  0.0000  0.0017  0.0716 </r>
        <r>  0.0000  0.0004  0.0170 </r>
        <r>  0.0195  0.0057  0.1717 </r>
        <r>  0.0854  0.0041  0.3473 </r>
        <r>  0.0021  0.0025  0.0000 </r>
        <r>  0.0047  0.0021  0.0000 </r>
        <r>  0.0008  0.0022  0.0000 </r>
        <r>  0.0018  0.0012  0.0000 </r>
       </set>
       <set comment="band 22">
        <r>  0.0000  0.0004  0.0170 </r>
        <r>  0.0000  0.0017  0.0716 </r>
        <r>  0.0854  0.0041  0.3473 </r>
        <r>  0.0195  0.0057  0.1717 </r>
        <r>  0.0047  0.0021  0.0000 </r>
        <r>  0.0021  0.0025  0.0000 </r>
        <r>  0.0018  0.0012  0.0000 </r>
        <r>  0.0008  0.0022  0.0000 </r>
       </set>
       <set comment="band 23">
        <r>  0.0000  0.0000  0.0005 </r>
        <r>  0.0000  0.0000  0.0022 </r>
        <r>  0.0008  0.0002  0.6504 </r>
        <r>  0.0001  0.0008  0.2280 </r>
        <r>  0.0004  0.0038  0.0000 </r>
        <r>  0.0002  0.0028  0.0000 </r>
        <r>  0.0015  0.0045  0.0000 </r>
        <r>  0.0010  0.0032  0.0000 </r>
       </set>
       <set comment="band 24">
        <r>  0.0000  0.0000  0.0022 </r>
        <r>  0.0000  0.0000  0.0005 </r>
        <r>  0.0001  0.0008  0.2280 </r>
        <r>  0.0008  0.0002  0.6504 </r>
        <r>  0.0002  0.0028  0.0000 </r>
        <r>  0.0004  0.0038  0.0000 </r>
        <r>  0.0010  0.0032  0.0000 </r>
        <r>  0.0015  0.0045  0.0000 </r>
       </set>
       <set comment="band 25">
        <r>  0.0007  0.0019  0.0274 </r>
        <r>  0.0004  0.0031  0.0153 </r>
        <r>  0.0000  0.0000  0.2821 </r>
        <r>  0.0000  0.0001  0.4506 </r>
        <r>  0.0000  0.0012  0.0000 </r>
        <r>  0.0000  0.0000  0.0000 </r>
        <r>  0.0000  0.0412  0.0000 </r>
        <r>  0.0000  0.0011  0.0000 </r>
       </set>
       <set comment="band 26">
        <r>  0.0004  0.0031  0.0153 </r>
        <r>  0.0007  0.0019  0.0274 </r>
        <r>  0.0000  0.0001  0.4506 </r>
        <r>  0.0000  0.0000  0.2821 </r>
        <r>  0.0000  0.0000  0.0000 </r>
        <r>  0.0000  0.0012  0.0000 </r>
        <r>  0.0000  0.0011  0.0000 </r>
        <r>  0.0000  0.0412  0.0000 </r>
       </set>
       <set comment="band 27">
        <r>  0.0046  0.0184  0.0201 </r>
        <r>  0.0023  0.0108  0.0112 </r>
        <r>  0.0000  0.0211  0.2410 </r>
        <r>  0.0000  0.0411  0.1260 </r>
        <r>  0.0000  0.0235  0.0000 </r>
        <r>  0.0000  0.0006  0.0000 </r>
        <r>  0.0000  0.0253  0.0000 </r>
        <r>  0.0000  0.0007  0.0000 </r>
       </set>
       <set comment="band 28">
        <r>  0.0023  0.0108  0.0112 </r>
        <r>  0.0046  0.0184  0.0201 </r>
        <r>  0.0000  0.0411  0.1260 </r>
        <r>  0.0000  0.0211  0.2410 </r>
        <r>  0.0000  0.0006  0.0000 </r>
        <r>  0.0000  0.0235  0.0000 </r>
        <r>  0.0000  0.0007  0.0000 </r>
        <r>  0.0000  0.0253  0.0000 </r>
       </set>
       <set comment="band 29">
        <r>  0.0000  0.0014  0.0252 </r>
        <r>  0.0000  0.0004  0.0337 </r>
        <r>  0.0031  0.0277  0.3340 </r>
        <r>  0.0112  0.0298  0.1456 </r>
        <r>  0.0102  0.0271  0.0000 </r>
        <r>  0.0177  0.0199  0.0000 </r>
        <r>  0.0104  0.0416  0.0000 </r>
        <r>  0.0181  0.0240  0.0000 </r>
       </set>
       <set comment="band 30">
        <r>  0.0000  0.0004  0.0337 </r>
        <r>  0.0000  0.0014  0.0252 </r>
        <r>  0.0112  0.0298  0.1456 </r>
        <r>  0.0031  0.0277  0.3340 </r>
        <r>  0.0177  0.0199  0.0000 </r>
        <r>  0.0102  0.0271  0.0000 </r>
        <r>  0.0181  0.0240  0.0000 </r>
        <r>  0.0104  0.0416  0.0000 </r>
       </set>
       <set comment="band 31">
        <r>  0.0000  0.0014  0.1050 </r>
        <r>  0.0000  0.0067  0.0469 </r>
        <r>  0.0080  0.0077  0.0683 </r>
        <r>  0.0017  0.0090  0.0451 </r>
        <r>  0.0161  0.0926  0.0000 </r>
        <r>  0.0232  0.1320  0.0000 </r>
        <r>  0.0032  0.0166  0.0000 </r>
        <r>  0.0046  0.0237  0.0000 </r>
       </set>
       <set comment="band 32">
        <r>  0.0000  0.0067  0.0469 </r>
        <r>  0.0000  0.0014  0.1050 </r>
        <r>  0.0017  0.0090  0.0451 </r>
        <r>  0.0080  0.0077  0.0683 </r>
        <r>  0.0232  0.1320  0.0000 </r>
        <r>  0.0161  0.0926  0.0000 </r>
        <r>  0.0046  0.0237  0.0000 </r>
        <r>  0.0032  0.0166  0.0000 </r>
       </set>
       <set comment="band 33">
        <r>  0.0107  0.0100  0.1284 </r>
        <r>  0.0055  0.0059  0.1870 </r>
        <r>  0.0000  0.0133  0.1026 </r>
        <r>  0.0000  0.0259  0.0691 </r>
        <r>  0.0000  0.0101  0.0000 </r>
        <r>  0.0000  0.0003  0.0000 </r>
        <r>  0.0000  0.0004  0.0000 </r>
        <r>  0.0000  0.0000  0.0000 </r>
       </set>
       <set comment="band 34">
        <r>  0.0055  0.0059  0.1870 </r>
        <r>  0.0107  0.0100  0.1284 </r>
        <r>  0.0000  0.0259  0.0691 </r>
        <r>  0.0000  0.0133  0.1026 </r>
        <r>  0.0000  0.0003  0.0000 </r>
        <r>  0.0000  0.0101  0.0000 </r>
        <r>  0.0000  0.0000  0.0000 </r>
        <r>  0.0000  0.0004  0.0000 </r>
       </set>
       <set comment="band 35">
        <r>  0.0027  0.0041  0.3431 </r>
        <r>  0.0014  0.0046  0.1765 </r>
        <r>  0.0000  0.0002  0.0261 </r>
        <r>  0.0000  0.0004  0.0411 </r>
        <r>  0.0000  0.0288  0.0000 </r>
        <r>  0.0000  0.0008  0.0000 </r>
        <r>  0.0000  0.0135  0.0000 </r>
        <r>  0.0000  0.0004  0.0000 </r>
       </set>
      </set>
      <set comment="kpoint 60">
       <set comment="band 1">
        <r>  0.3912  0.0000  0.0000 </r>
        <r>  0.5946  0.0000  0.0000 </r>
        <r>  0.0000  0.0000  0.0000 </r>
        <r>  0.0000  0.0000  0.0000 </r>
        <r>  0.0000  0.0000  0.0000 </r>
        <r>  0.0000  0.0000  0.0000 </r>
        <r>  0.0000  0.0000  0.0000 </r>
        <r>  0.0000  0.0000  0.0000 </r>
       </set>
       <set comment="band 2">
        <r>  0.5946  0.0000  0.0000 </r>
        <r>  0.3912  0.0000  0.0000 </r>
        <r>  0.0000  0.0000  0.0000 </r>
        <r>  0.0000  0.0000  0.0000 </r>
        <r>  0.0000  0.0000  0.0000 </r>
        <r>  0.0000  0.0000  0.0000 </r>
        <r>  0.0000  0.0000  0.0000 </r>
        <r>  0.0000  0.0000  0.0000 </r>
       </set>
       <set comment="band 3">
        <r>  0.0000  0.3829  0.0000 </r>
        <r>  0.0000  0.5762  0.0000 </r>
        <r>  0.0000  0.0000  0.0000 </r>
        <r>  0.0000  0.0000  0.0000 </r>
        <r>  0.0000  0.0000  0.0000 </r>
        <r>  0.0000  0.0000  0.0000 </r>
        <r>  0.0000  0.0001  0.0000 </r>
        <r>  0.0000  0.0001  0.0000 </r>
       </set>
       <set comment="band 4">
        <r>  0.0000  0.5762  0.0000 </r>
        <r>  0.0000  0.3829  0.0000 </r>
        <r>  0.0000  0.0000  0.0000 </r>
        <r>  0.0000  0.0000  0.0000 </r>
        <r>  0.0000  0.0000  0.0000 </r>
        <r>  0.0000  0.0000  0.0000 </r>
        <r>  0.0000  0.0001  0.0000 </r>
        <r>  0.0000  0.0001  0.0000 </r>
       </set>
       <set comment="band 5">
        <r>  0.0000  0.5931  0.0000 </r>
        <r>  0.0000  0.3603  0.0000 </r>
        <r>  0.0000  0.0003  0.0000 </r>
        <r>  0.0000  0.0004  0.0000 </r>
        <r>  0.0000  0.0000  0.0000 </r>
        <r>  0.0000  0.0000  0.0000 </r>
        <r>  0.0000  0.0000  0.0000 </r>
        <r>  0.0000  0.0000  0.0000 </r>
       </set>
       <set comment="band 6">
        <r>  0.0000  0.3603  0.0000 </r>
        <r>  0.0000  0.5931  0.0000 </r>
        <r>  0.0000  0.0004  0.0000 </r>
        <r>  0.0000  0.0003  0.0000 </r>
        <r>  0.0000  0.0000  0.0000 </r>
        <r>  0.0000  0.0000  0.0000 </r>
        <r>  0.0000  0.0000  0.0000 </r>
        <r>  0.0000  0.0000  0.0000 </r>
       </set>
       <set comment="band 7">
        <r>  0.0000  0.0723  0.0000 </r>
        <r>  0.0000  0.8802  0.0000 </r>
        <r>  0.0000  0.0008  0.0000 </r>
        <r>  0.0000  0.0001  0.0000 </r>
        <r>  0.0000  0.0000  0.0000 </r>
        <r>  0.0000  0.0000  0.0000 </r>
        <r>  0.0005  0.0001  0.0000 </r>
        <r>  0.0004  0.0001  0.0000 </r>
       </set>
       <set comment="band 8">
        <r>  0.0000  0.8802  0.0000 </r>
        <r>  0.0000  0.0723  0.0000 </r>
        <r>  0.0000  0.0001  0.0000 </r>
        <r>  0.0000  0.0008  0.0000 </r>
        <r>  0.0000  0.0000  0.0000 </r>
        <r>  0.0000  0.0000  0.0000 </r>
        <r>  0.0004  0.0001  0.0000 </r>
        <r>  0.0005  0.0001  0.0000 </r>
       </set>
       <set comment="band 9">
        <r>  0.0000  0.0035  0.0015 </r>
        <r>  0.0000  0.0038  0.0013 </r>
        <r>  0.0017  0.0068  0.0093 </r>
        <r>  0.0015  0.0064  0.0100 </r>
        <r>  0.0070  0.0474  0.0000 </r>
        <r>  0.0088  0.0597  0.0000 </r>
        <r>  0.2123  0.0006  0.0000 </r>
        <r>  0.2677  0.0008  0.0000 </r>
       </set>
       <set comment="band 10">
        <r>  0.0000  0.0038  0.0013 </r>
        <r>  0.0000  0.0035  0.0015 </r>
        <r>  0.0015  0.0064  0.0100 </r>
        <r>  0.0017  0.0068  0.0093 </r>
        <r>  0.0088  0.0597  0.0000 </r>
        <r>  0.0070  0.0474  0.0000 </r>
        <r>  0.2677  0.0008  0.0000 </r>
        <r>  0.2123  0.0006  0.0000 </r>
       </set>
       <set comment="band 11">
        <r>  0.0000  0.0000  0.0011 </r>
        <r>  0.0000  0.0000  0.0010 </r>
        <r>  0.0316  0.0195  0.0228 </r>
        <r>  0.0385  0.0161  0.0273 </r>
        <r>  0.0050  0.0040  0.0000 </r>
        <r>  0.3444  0.0114  0.0000 </r>
        <r>  0.0001  0.0026  0.0000 </r>
        <r>  0.0096  0.1740  0.0000 </r>
       </set>
       <set comment="band 12">
        <r>  0.0000  0.0000  0.0010 </r>
        <r>  0.0000  0.0000  0.0011 </r>
        <r>  0.0385  0.0161  0.0273 </r>
        <r>  0.0316  0.0195  0.0228 </r>
        <r>  0.3444  0.0114  0.0000 </r>
        <r>  0.0050  0.0040  0.0000 </r>
        <r>  0.0096  0.1740  0.0000 </r>
        <r>  0.0001  0.0026  0.0000 </r>
       </set>
       <set comment="band 13">
        <r>  0.0000  0.0137  0.0010 </r>
        <r>  0.0000  0.0004  0.0119 </r>
        <r>  0.0006  0.0177  0.1303 </r>
        <r>  0.0198  0.0461  0.0129 </r>
        <r>  0.0012  0.0199  0.0000 </r>
        <r>  0.0017  0.0151  0.0000 </r>
        <r>  0.0000  0.1383  0.0000 </r>
        <r>  0.0000  0.1032  0.0000 </r>
       </set>
       <set comment="band 14">
        <r>  0.0000  0.0004  0.0119 </r>
        <r>  0.0000  0.0137  0.0010 </r>
        <r>  0.0198  0.0461  0.0129 </r>
        <r>  0.0006  0.0177  0.1303 </r>
        <r>  0.0017  0.0151  0.0000 </r>
        <r>  0.0012  0.0199  0.0000 </r>
        <r>  0.0000  0.1032  0.0000 </r>
        <r>  0.0000  0.1383  0.0000 </r>
       </set>
       <set comment="band 15">
        <r>  0.0094  0.0073  0.0057 </r>
        <r>  0.0142  0.0055  0.0066 </r>
        <r>  0.0000  0.0045  0.0480 </r>
        <r>  0.0000  0.0030  0.0467 </r>
        <r>  0.0000  0.0320  0.0000 </r>
        <r>  0.0000  0.0159  0.0000 </r>
        <r>  0.0000  0.1334  0.0000 </r>
        <r>  0.0000  0.0666  0.0000 </r>
       </set>
       <set comment="band 16">
        <r>  0.0142  0.0055  0.0066 </r>
        <r>  0.0094  0.0073  0.0057 </r>
        <r>  0.0000  0.0030  0.0467 </r>
        <r>  0.0000  0.0045  0.0481 </r>
        <r>  0.0000  0.0159  0.0000 </r>
        <r>  0.0000  0.0320  0.0000 </r>
        <r>  0.0000  0.0666  0.0000 </r>
        <r>  0.0000  0.1334  0.0000 </r>
       </set>
       <set comment="band 17">
        <r>  0.0000  0.0004  0.0021 </r>
        <r>  0.0000  0.0008  0.0032 </r>
        <r>  0.0571  0.0384  0.1722 </r>
        <r>  0.0319  0.0641  0.1138 </r>
        <r>  0.0065  0.0076  0.0000 </r>
        <r>  0.0001  0.2605  0.0000 </r>
        <r>  0.0005  0.0185  0.0000 </r>
        <r>  0.0000  0.0178  0.0000 </r>
       </set>
       <set comment="band 18">
        <r>  0.0000  0.0008  0.0032 </r>
        <r>  0.0000  0.0004  0.0021 </r>
        <r>  0.0319  0.0641  0.1138 </r>
        <r>  0.0571  0.0384  0.1722 </r>
        <r>  0.0001  0.2605  0.0000 </r>
        <r>  0.0065  0.0076  0.0000 </r>
        <r>  0.0000  0.0178  0.0000 </r>
        <r>  0.0005  0.0185  0.0000 </r>
       </set>
       <set comment="band 19">
        <r>  0.0028  0.0040  0.0136 </r>
        <r>  0.0042  0.0050  0.0107 </r>
        <r>  0.0000  0.0083  0.1069 </r>
        <r>  0.0000  0.0055  0.1404 </r>
        <r>  0.0000  0.0835  0.0000 </r>
        <r>  0.0000  0.0417  0.0000 </r>
        <r>  0.0000  0.0366  0.0000 </r>
        <r>  0.0000  0.0183  0.0000 </r>
       </set>
       <set comment="band 20">
        <r>  0.0042  0.0050  0.0107 </r>
        <r>  0.0028  0.0040  0.0136 </r>
        <r>  0.0000  0.0055  0.1404 </r>
        <r>  0.0000  0.0083  0.1069 </r>
        <r>  0.0000  0.0417  0.0000 </r>
        <r>  0.0000  0.0835  0.0000 </r>
        <r>  0.0000  0.0183  0.0000 </r>
        <r>  0.0000  0.0366  0.0000 </r>
       </set>
       <set comment="band 21">
        <r>  0.0000  0.0003  0.1020 </r>
        <r>  0.0000  0.0000  0.0065 </r>
        <r>  0.0063  0.0051  0.0389 </r>
        <r>  0.1014  0.0007  0.4705 </r>
        <r>  0.0026  0.0006  0.0000 </r>
        <r>  0.0055  0.0004  0.0000 </r>
        <r>  0.0001  0.0003  0.0000 </r>
        <r>  0.0002  0.0001  0.0000 </r>
       </set>
       <set comment="band 22">
        <r>  0.0000  0.0000  0.0065 </r>
        <r>  0.0000  0.0003  0.1020 </r>
        <r>  0.1014  0.0007  0.4705 </r>
        <r>  0.0063  0.0051  0.0389 </r>
        <r>  0.0055  0.0004  0.0000 </r>
        <r>  0.0026  0.0006  0.0000 </r>
        <r>  0.0002  0.0001  0.0000 </r>
        <r>  0.0001  0.0003  0.0000 </r>
       </set>
       <set comment="band 23">
        <r>  0.0018  0.0024  0.0300 </r>
        <r>  0.0012  0.0036  0.0200 </r>
        <r>  0.0000  0.0001  0.2782 </r>
        <r>  0.0000  0.0001  0.4164 </r>
        <r>  0.0000  0.0001  0.0000 </r>
        <r>  0.0000  0.0002  0.0000 </r>
        <r>  0.0000  0.0149  0.0000 </r>
        <r>  0.0000  0.0300  0.0000 </r>
       </set>
       <set comment="band 24">
        <r>  0.0012  0.0036  0.0200 </r>
        <r>  0.0018  0.0024  0.0300 </r>
        <r>  0.0000  0.0001  0.4164 </r>
        <r>  0.0000  0.0001  0.2782 </r>
        <r>  0.0000  0.0002  0.0000 </r>
        <r>  0.0000  0.0001  0.0000 </r>
        <r>  0.0000  0.0300  0.0000 </r>
        <r>  0.0000  0.0149  0.0000 </r>
       </set>
       <set comment="band 25">
        <r>  0.0000  0.0000  0.0000 </r>
        <r>  0.0000  0.0000  0.0000 </r>
        <r>  0.0039  0.0021  0.3806 </r>
        <r>  0.0054  0.0015  0.5108 </r>
        <r>  0.0009  0.0018  0.0000 </r>
        <r>  0.0010  0.0017  0.0000 </r>
        <r>  0.0006  0.0021  0.0000 </r>
        <r>  0.0006  0.0023  0.0000 </r>
       </set>
       <set comment="band 26">
        <r>  0.0000  0.0000  0.0000 </r>
        <r>  0.0000  0.0000  0.0000 </r>
        <r>  0.0054  0.0015  0.5108 </r>
        <r>  0.0039  0.0021  0.3806 </r>
        <r>  0.0010  0.0017  0.0000 </r>
        <r>  0.0009  0.0018  0.0000 </r>
        <r>  0.0006  0.0023  0.0000 </r>
        <r>  0.0006  0.0021  0.0000 </r>
       </set>
       <set comment="band 27">
        <r>  0.0003  0.0104  0.0010 </r>
        <r>  0.0004  0.0155  0.0014 </r>
        <r>  0.0000  0.0296  0.2247 </r>
        <r>  0.0000  0.0196  0.3387 </r>
        <r>  0.0000  0.0155  0.0000 </r>
        <r>  0.0000  0.0077  0.0000 </r>
        <r>  0.0000  0.0013  0.0000 </r>
        <r>  0.0000  0.0007  0.0000 </r>
       </set>
       <set comment="band 28">
        <r>  0.0004  0.0155  0.0014 </r>
        <r>  0.0003  0.0104  0.0010 </r>
        <r>  0.0000  0.0196  0.3387 </r>
        <r>  0.0000  0.0296  0.2247 </r>
        <r>  0.0000  0.0077  0.0000 </r>
        <r>  0.0000  0.0155  0.0000 </r>
        <r>  0.0000  0.0007  0.0000 </r>
        <r>  0.0000  0.0013  0.0000 </r>
       </set>
       <set comment="band 29">
        <r>  0.0000  0.0011  0.0121 </r>
        <r>  0.0000  0.0026  0.0068 </r>
        <r>  0.0024  0.0176  0.2235 </r>
        <r>  0.0010  0.0093  0.4907 </r>
        <r>  0.0021  0.0012  0.0000 </r>
        <r>  0.0005  0.0037  0.0000 </r>
        <r>  0.0231  0.0091  0.0000 </r>
        <r>  0.0055  0.0381  0.0000 </r>
       </set>
       <set comment="band 30">
        <r>  0.0000  0.0026  0.0068 </r>
        <r>  0.0000  0.0011  0.0121 </r>
        <r>  0.0010  0.0093  0.4907 </r>
        <r>  0.0024  0.0176  0.2235 </r>
        <r>  0.0005  0.0037  0.0000 </r>
        <r>  0.0021  0.0012  0.0000 </r>
        <r>  0.0055  0.0381  0.0000 </r>
        <r>  0.0231  0.0091  0.0000 </r>
       </set>
       <set comment="band 31">
        <r>  0.0000  0.0046  0.1501 </r>
        <r>  0.0000  0.0075  0.0937 </r>
        <r>  0.0003  0.0057  0.0066 </r>
        <r>  0.0002  0.0040  0.0062 </r>
        <r>  0.0001  0.0051  0.0000 </r>
        <r>  0.0050  0.2410  0.0000 </r>
        <r>  0.0000  0.0011  0.0000 </r>
        <r>  0.0002  0.0045  0.0000 </r>
       </set>
       <set comment="band 32">
        <r>  0.0000  0.0075  0.0937 </r>
        <r>  0.0000  0.0046  0.1501 </r>
        <r>  0.0002  0.0040  0.0062 </r>
        <r>  0.0003  0.0057  0.0066 </r>
        <r>  0.0050  0.2410  0.0000 </r>
        <r>  0.0001  0.0051  0.0000 </r>
        <r>  0.0002  0.0045  0.0000 </r>
        <r>  0.0000  0.0011  0.0000 </r>
       </set>
       <set comment="band 33">
        <r>  0.0011  0.0125  0.1651 </r>
        <r>  0.0007  0.0084  0.2425 </r>
        <r>  0.0000  0.0181  0.0558 </r>
        <r>  0.0000  0.0273  0.0388 </r>
        <r>  0.0000  0.0002  0.0000 </r>
        <r>  0.0000  0.0003  0.0000 </r>
        <r>  0.0000  0.0000  0.0000 </r>
        <r>  0.0000  0.0000  0.0000 </r>
       </set>
       <set comment="band 34">
        <r>  0.0007  0.0084  0.2425 </r>
        <r>  0.0011  0.0125  0.1651 </r>
        <r>  0.0000  0.0273  0.0388 </r>
        <r>  0.0000  0.0181  0.0558 </r>
        <r>  0.0000  0.0003  0.0000 </r>
        <r>  0.0000  0.0002  0.0000 </r>
        <r>  0.0000  0.0000  0.0000 </r>
        <r>  0.0000  0.0000  0.0000 </r>
       </set>
       <set comment="band 35">
        <r>  0.0000  0.0022  0.3484 </r>
        <r>  0.0000  0.0028  0.2327 </r>
        <r>  0.0000  0.0000  0.0469 </r>
        <r>  0.0000  0.0000  0.0700 </r>
        <r>  0.0000  0.0003  0.0000 </r>
        <r>  0.0000  0.0007  0.0000 </r>
        <r>  0.0000  0.0067  0.0000 </r>
        <r>  0.0000  0.0135  0.0000 </r>
       </set>
      </set>
     </set>
    </set>
   </array>
  </projected>
 </calculation>
 <structure name="finalpos" >
  <crystal>
   <varray name="basis" >
    <v>       3.70006529       0.00000000       0.00000000 </v>
    <v>       0.00000000       4.68351691       0.00000000 </v>
    <v>       0.00000000       0.00000000       7.64083541 </v>
   </varray>
   <i name="volume">    132.41046935 </i>
   <varray name="rec_basis" >
    <v>       0.27026550      -0.00000000      -0.00000000 </v>
    <v>      -0.00000000       0.21351476      -0.00000000 </v>
    <v>      -0.00000000      -0.00000000       0.13087574 </v>
   </varray>
  </crystal>
  <varray name="positions" >
   <v>      -0.00000000       0.00000000       0.25000000 </v>
   <v>      -0.00000000       0.00000000       0.75000000 </v>
   <v>       0.50000000       0.50000000       0.75000000 </v>
   <v>       0.50000000       0.50000000       0.25000000 </v>
   <v>       0.50000000       0.50000000      -0.00000000 </v>
   <v>       0.50000000       0.50000000       0.50000000 </v>
   <v>      -0.00000000       0.50000000      -0.00000000 </v>
   <v>      -0.00000000       0.50000000       0.50000000 </v>
  </varray>
 </structure>
</modeling>
