 running on   35 total cores
 distrk:  each k-point on   35 cores,    1 groups
 distr:  one band on    7 cores,    5 groups
 using from now: INCAR     
 vasp.5.4.4.18Apr17-6-g9f103f2a35 (build Apr 24 2023 09:55:28) complex          
  
 POSCAR found type information on POSCAR  Zr Ni H 
 POSCAR found :  3 types and      48 ions
 scaLAPACK will be used

 ----------------------------------------------------------------------------- 
|                                                                             |
|  ADVICE TO THIS USER RUNNING 'VASP/VAMP'   (HEAR YOUR MASTER'S VOICE ...):  |
|                                                                             |
|      You have a (more or less) 'large supercell' and for larger cells       |
|      it might be more efficient to use real space projection opertators     |
|      So try LREAL= Auto  in the INCAR   file.                               |
|      Mind:          For very  accurate calculation you might also keep the  |
|      reciprocal projection scheme          (i.e. LREAL=.FALSE.)             |
|                                                                             |
 ----------------------------------------------------------------------------- 

 LDA part: xc-table for Pade appr. of Perdew
 generate k-points for:    2    4    4
 POSCAR, INCAR and KPOINTS ok, starting setup
 FFT: planning ...
 WAVECAR not read
 entering main loop
       N       E                     dE             d eps       ncg     rms          rms(c)
DAV:   1     0.446202993426E+04    0.44620E+04   -0.14106E+05  6440   0.162E+03
DAV:   2     0.390934802211E+03   -0.40711E+04   -0.39254E+04  6760   0.490E+02
DAV:   3    -0.227331266908E+03   -0.61827E+03   -0.57720E+03  7240   0.207E+02
DAV:   4    -0.306431808109E+03   -0.79101E+02   -0.76499E+02 11330   0.634E+01
DAV:   5    -0.314047186472E+03   -0.76154E+01   -0.75904E+01 10860   0.154E+01    0.706E+01
DAV:   6    -0.350090525063E+03   -0.36043E+02   -0.49986E+02  7910   0.138E+02    0.880E+01
DAV:   7    -0.281488562236E+03    0.68602E+02   -0.20806E+02  8500   0.645E+01    0.217E+01
DAV:   8    -0.328993680292E+03   -0.47505E+02   -0.13814E+02 10480   0.806E+01    0.111E+02
DAV:   9    -0.294546261733E+03    0.34447E+02   -0.79572E+01 10470   0.439E+01    0.440E+01
DAV:  10    -0.282783860052E+03    0.11762E+02   -0.36085E+01  9560   0.306E+01    0.153E+01
DAV:  11    -0.283101778458E+03   -0.31792E+00   -0.73226E+00  9570   0.134E+01    0.141E+01
DAV:  12    -0.282813234883E+03    0.28854E+00   -0.15763E+00  9290   0.104E+01    0.127E+01
DAV:  13    -0.281854484775E+03    0.95875E+00   -0.79915E-01 10660   0.631E+00    0.945E+00
DAV:  14    -0.281651581216E+03    0.20290E+00   -0.49880E-01  9720   0.510E+00    0.816E+00
DAV:  15    -0.281557478524E+03    0.94103E-01   -0.17446E-01  9740   0.295E+00    0.738E+00
DAV:  16    -0.281470284882E+03    0.87194E-01   -0.30119E-02  9410   0.988E-01    0.662E+00
DAV:  17    -0.281379020712E+03    0.91264E-01   -0.39698E-02 10020   0.193E+00    0.581E+00
DAV:  18    -0.281223690638E+03    0.15533E+00   -0.50588E-02 11270   0.213E+00    0.398E+00
DAV:  19    -0.281158370432E+03    0.65320E-01   -0.52293E-02  9360   0.129E+00    0.267E+00
DAV:  20    -0.281136441063E+03    0.21929E-01   -0.15721E-02  8990   0.581E-01    0.209E+00
DAV:  21    -0.281110028475E+03    0.26413E-01   -0.11147E-02 10740   0.820E-01    0.111E+00
DAV:  22    -0.281101448592E+03    0.85799E-02   -0.15578E-02  9220   0.667E-01    0.314E-01
DAV:  23    -0.281101621175E+03   -0.17258E-03   -0.78838E-03  7960   0.256E-01    0.154E-01
DAV:  24    -0.281101721705E+03   -0.10053E-03   -0.89061E-04  8110   0.864E-02    0.184E-01
DAV:  25    -0.281101674442E+03    0.47263E-04   -0.35212E-05  5510   0.335E-02    0.157E-01
DAV:  26    -0.281101577847E+03    0.96595E-04   -0.58387E-04  8450   0.207E-01    0.897E-02
DAV:  27    -0.281101615267E+03   -0.37420E-04   -0.16578E-04  6730   0.304E-02    0.113E-01
DAV:  28    -0.281101566920E+03    0.48347E-04   -0.35406E-05  5150   0.473E-02    0.703E-02
DAV:  29    -0.281101563249E+03    0.36713E-05   -0.11360E-05  3640   0.110E-02
   1 F= -.28110156E+03 E0= -.28110014E+03  d E =-.281102E+03
 BRION: g(F)=  0.763E+00 g(S)=  0.803E-01
 bond charge predicted
       N       E                     dE             d eps       ncg     rms          rms(c)
DAV:   1    -0.282028459323E+03   -0.92689E+00   -0.34510E+01  6440   0.151E+01    0.470E+00
DAV:   2    -0.282865006826E+03   -0.83655E+00   -0.53961E+00  9220   0.124E+01    0.949E+00
DAV:   3    -0.281959954247E+03    0.90505E+00   -0.30515E+00  9160   0.115E+01    0.367E+00
DAV:   4    -0.281970353001E+03   -0.10399E-01   -0.81389E-01  9470   0.650E+00    0.282E+00
DAV:   5    -0.281934432622E+03    0.35920E-01   -0.21302E-01 10710   0.406E+00    0.188E+00
DAV:   6    -0.281914241267E+03    0.20191E-01   -0.85663E-02 11330   0.280E+00    0.926E-01
DAV:   7    -0.281911564367E+03    0.26769E-02   -0.17979E-02  9850   0.106E+00    0.511E-01
DAV:   8    -0.281913871939E+03   -0.23076E-02   -0.15871E-02  9700   0.123E+00    0.697E-01
DAV:   9    -0.281910868172E+03    0.30038E-02   -0.97710E-03 10870   0.102E+00    0.123E-01
DAV:  10    -0.281910737963E+03    0.13021E-03   -0.19881E-03 10170   0.207E-01    0.717E-02
DAV:  11    -0.281910752411E+03   -0.14448E-04   -0.40307E-04  9730   0.866E-02    0.559E-02
DAV:  12    -0.281910749662E+03    0.27484E-05   -0.55641E-05  6180   0.568E-02
   2 F= -.28191075E+03 E0= -.28190946E+03  d E =-.809186E+00
 BRION: g(F)=  0.655E+00 g(S)=  0.700E-01
 BRIONS problems: POTIM should be increased
 retain N=  1 mean eig=13.52
 eig:  13.521
 bond charge predicted
       N       E                     dE             d eps       ncg     rms          rms(c)
DAV:   1    -0.291568062024E+03   -0.96573E+01   -0.20933E+03  6440   0.114E+02    0.391E+01
DAV:   2    -0.328916579441E+03   -0.37349E+02   -0.29231E+02  8600   0.907E+01    0.582E+01
DAV:   3    -0.284612682936E+03    0.44304E+02   -0.13031E+02  8630   0.671E+01    0.107E+01
DAV:   4    -0.290033475164E+03   -0.54208E+01   -0.46277E+01 10310   0.345E+01    0.244E+01
DAV:   5    -0.287320516895E+03    0.27130E+01   -0.15494E+01 11360   0.335E+01    0.153E+01
DAV:   6    -0.286516780006E+03    0.80374E+00   -0.51229E+00  9680   0.140E+01    0.780E+00
DAV:   7    -0.286594680619E+03   -0.77901E-01   -0.19459E+00 10070   0.115E+01    0.650E+00
DAV:   8    -0.286397225437E+03    0.19746E+00   -0.78226E-01  9700   0.796E+00    0.294E+00
DAV:   9    -0.286447472081E+03   -0.50247E-01   -0.61150E-01 10630   0.595E+00    0.358E+00
DAV:  10    -0.286366425463E+03    0.81047E-01   -0.33979E-01 10940   0.543E+00    0.806E-01
DAV:  11    -0.286363725370E+03    0.27001E-02   -0.46831E-02 10110   0.968E-01    0.466E-01
DAV:  12    -0.286363200977E+03    0.52439E-03   -0.15415E-02  8800   0.678E-01    0.306E-01
DAV:  13    -0.286364858970E+03   -0.16580E-02   -0.11210E-02  9880   0.988E-01    0.481E-01
DAV:  14    -0.286363708445E+03    0.11505E-02   -0.43453E-03 10660   0.642E-01    0.178E-01
DAV:  15    -0.286363540682E+03    0.16776E-03   -0.64449E-04  9420   0.104E-01    0.892E-02
DAV:  16    -0.286363522003E+03    0.18679E-04   -0.15031E-04  9110   0.442E-02    0.295E-02
DAV:  17    -0.286363519551E+03    0.24516E-05   -0.10735E-05  3840   0.195E-02
   3 F= -.28636352E+03 E0= -.28636248E+03  d E =-.445277E+01
 BRION: g(F)=  0.290E+00 g(S)=  0.226E-01
 BRIONS problems: POTIM should be increased
 retain N=  1 mean eig=16.82
 eig:  16.824
 bond charge predicted
       N       E                     dE             d eps       ncg     rms          rms(c)
DAV:   1    -0.287581228313E+03   -0.12177E+01   -0.14408E+02  6440   0.309E+01    0.929E+00
DAV:   2    -0.290449461921E+03   -0.28682E+01   -0.19573E+01  9220   0.233E+01    0.171E+01
DAV:   3    -0.287394406171E+03    0.30551E+01   -0.10414E+01  9050   0.227E+01    0.749E+00
DAV:   4    -0.287494050791E+03   -0.99645E-01   -0.35417E+00  9600   0.135E+01    0.606E+00
DAV:   5    -0.287253900474E+03    0.24015E+00   -0.79719E-01 10510   0.768E+00    0.260E+00
DAV:   6    -0.287234388350E+03    0.19512E-01   -0.25880E-01 10720   0.473E+00    0.202E+00
DAV:   7    -0.287217456238E+03    0.16932E-01   -0.81473E-02  9690   0.250E+00    0.872E-01
DAV:   8    -0.287227242367E+03   -0.97861E-02   -0.50484E-02  9890   0.208E+00    0.128E+00
DAV:   9    -0.287216708564E+03    0.10534E-01   -0.43501E-02 10880   0.217E+00    0.300E-01
DAV:  10    -0.287216040515E+03    0.66805E-03   -0.74549E-03 10280   0.520E-01    0.118E-01
