 running on   35 total cores
 distrk:  each k-point on   35 cores,    1 groups
 distr:  one band on    7 cores,    5 groups
 using from now: INCAR     
 vasp.5.4.4.18Apr17-6-g9f103f2a35 (build Apr 24 2023 09:55:28) complex          
  
 POSCAR found type information on POSCAR  Ca Fe B 
 POSCAR found :  3 types and      12 ions
 scaLAPACK will be used
 LDA part: xc-table for Pade appr. of Perdew
 generate k-points for:    9    4    4
 POSCAR, INCAR and KPOINTS ok, starting setup
 FFT: planning ...
 WAVECAR not read
 entering main loop
       N       E                     dE             d eps       ncg     rms          rms(c)
DAV:   1     0.807613178440E+03    0.80761E+03   -0.32580E+04  4500   0.146E+03
DAV:   2     0.159657220928E+02   -0.79165E+03   -0.77778E+03  4540   0.467E+02
DAV:   3    -0.788342337096E+02   -0.94800E+02   -0.90373E+02  7750   0.147E+02
DAV:   4    -0.869171417885E+02   -0.80829E+01   -0.79565E+01  7960   0.419E+01
DAV:   5    -0.874008979853E+02   -0.48376E+00   -0.48269E+00  7900   0.862E+00    0.530E+01
DAV:   6    -0.209970562028E+03   -0.12257E+03   -0.13769E+03  6000   0.250E+02    0.156E+02
DAV:   7    -0.960805023732E+02    0.11389E+03   -0.24755E+02  6350   0.103E+02    0.527E+01
DAV:   8    -0.584249662929E+02    0.37656E+02   -0.14580E+02  6900   0.853E+01    0.104E+01
DAV:   9    -0.593878212235E+02   -0.96285E+00   -0.13006E+01  7950   0.129E+01    0.778E+00
DAV:  10    -0.593587716834E+02    0.29050E-01   -0.77521E-01  7150   0.346E+00    0.518E+00
DAV:  11    -0.594136653623E+02   -0.54894E-01   -0.27755E-01  7030   0.267E+00    0.533E+00
DAV:  12    -0.593577150983E+02    0.55950E-01   -0.44293E-01  6760   0.258E+00    0.262E+00
DAV:  13    -0.593477943223E+02    0.99208E-02   -0.46725E-02  6270   0.968E-01    0.191E+00
DAV:  14    -0.593431108798E+02    0.46834E-02   -0.12205E-02  7850   0.490E-01    0.111E+00
DAV:  15    -0.593413890946E+02    0.17218E-02   -0.23134E-03  6310   0.284E-01    0.804E-01
DAV:  16    -0.593410280461E+02    0.36105E-03   -0.98177E-04  6570   0.204E-01    0.334E-01
DAV:  17    -0.593410183639E+02    0.96821E-05   -0.29178E-04  6920   0.818E-02    0.222E-01
DAV:  18    -0.593409766831E+02    0.41681E-04   -0.12106E-04  5800   0.559E-02    0.732E-02
DAV:  19    -0.593409872106E+02   -0.10527E-04   -0.86828E-06  3200   0.216E-02    0.483E-02
DAV:  20    -0.593409918695E+02   -0.46589E-05   -0.66628E-06  3040   0.159E-02
   1 F= -.59340992E+02 E0= -.59340447E+02  d E =-.593410E+02
 BRION: g(F)=  0.516E-02 g(S)=  0.615E+00
 bond charge predicted
       N       E                     dE             d eps       ncg     rms          rms(c)
DAV:   1    -0.613951056096E+02   -0.20541E+01   -0.26073E+01  5150   0.439E+01    0.139E+01
DAV:   2    -0.809598742093E+02   -0.19565E+02   -0.17486E+02  7820   0.772E+01    0.461E+01
DAV:   3    -0.598277160788E+02    0.21132E+02   -0.87256E+01  6400   0.522E+01    0.316E+00
DAV:   4    -0.598927810763E+02   -0.65065E-01   -0.24998E+00  6770   0.568E+00    0.203E+00
DAV:   5    -0.598559337302E+02    0.36847E-01   -0.18081E-01  8010   0.272E+00    0.751E-01
DAV:   6    -0.598538030892E+02    0.21306E-02   -0.23970E-02  7800   0.703E-01    0.424E-01
DAV:   7    -0.598540547717E+02   -0.25168E-03   -0.31188E-03  8520   0.221E-01    0.265E-01
DAV:   8    -0.598545679284E+02   -0.51316E-03   -0.24417E-03  8210   0.170E-01    0.897E-02
DAV:   9    -0.598545830223E+02   -0.15094E-04   -0.21302E-04  6970   0.750E-02    0.466E-02
DAV:  10    -0.598545898694E+02   -0.68471E-05   -0.61946E-05  5080   0.333E-02
   2 F= -.59854590E+02 E0= -.59853864E+02  d E =-.513598E+00
 BRION: g(F)=  0.340E-02 g(S)=  0.284E+00 retain N=  1 mean eig= 3.00
 eig:   3.005
 bond charge predicted
       N       E                     dE             d eps       ncg     rms          rms(c)
DAV:   1    -0.672430259218E+02   -0.73884E+01   -0.11202E+02  5260   0.914E+01    0.290E+01
DAV:   2    -0.138785293095E+03   -0.71542E+02   -0.73677E+02  8090   0.158E+02    0.746E+01
DAV:   3    -0.603573704162E+02    0.78428E+02   -0.30097E+02  6360   0.769E+01    0.999E+00
DAV:   4    -0.604360203524E+02   -0.78650E-01   -0.13062E+01  7430   0.137E+01    0.387E+00
DAV:   5    -0.603181228129E+02    0.11790E+00   -0.11181E+00  7800   0.653E+00    0.238E+00
DAV:   6    -0.602953058798E+02    0.22817E-01   -0.12870E-01  7850   0.228E+00    0.115E+00
DAV:   7    -0.602947906797E+02    0.51520E-03   -0.19887E-02  8780   0.608E-01    0.627E-01
DAV:   8    -0.602951703574E+02   -0.37968E-03   -0.77886E-03  7890   0.599E-01    0.107E-01
DAV:   9    -0.602951805191E+02   -0.10162E-04   -0.14586E-03  8070   0.158E-01    0.488E-02
DAV:  10    -0.602951717058E+02    0.88133E-05   -0.14206E-04  6370   0.769E-02    0.824E-03
DAV:  11    -0.602951702489E+02    0.14569E-05   -0.53300E-06  3110   0.130E-02
   3 F= -.60295170E+02 E0= -.60294681E+02  d E =-.440580E+00
 BRION: g(F)=  0.296E-02 g(S)=  0.136E-01 retain N=  1 mean eig= 2.95
 eig:   2.955
 bond charge predicted
       N       E                     dE             d eps       ncg     rms          rms(c)
DAV:   1    -0.603223326836E+02   -0.27161E-01   -0.32514E-01  5000   0.377E+00    0.121E+00
DAV:   2    -0.605094036393E+02   -0.18707E+00   -0.14000E+00  7490   0.712E+00    0.501E+00
DAV:   3    -0.603091604133E+02    0.20024E+00   -0.85840E-01  6580   0.579E+00    0.316E-01
DAV:   4    -0.603097703775E+02   -0.60996E-03   -0.25107E-02  6200   0.567E-01    0.276E-01
DAV:   5    -0.603093546779E+02    0.41570E-03   -0.23680E-03  7970   0.250E-01    0.700E-02
DAV:   6    -0.603093347936E+02    0.19884E-04   -0.13760E-04  6650   0.552E-02    0.422E-02
DAV:   7    -0.603093232332E+02    0.11560E-04   -0.52663E-05  5420   0.401E-02    0.112E-02
DAV:   8    -0.603093215050E+02    0.17282E-05   -0.51038E-06  2890   0.175E-02
   4 F= -.60309322E+02 E0= -.60308787E+02  d E =-.141513E-01
 BRION: g(F)=  0.243E-02 g(S)=  0.939E-02 retain N=  2 mean eig= 4.67
 eig:   2.628  6.704
 bond charge predicted
       N       E                     dE             d eps       ncg     rms          rms(c)
DAV:   1    -0.612050926463E+02   -0.89577E+00   -0.12563E+01  5190   0.275E+01    0.115E+01
DAV:   2    -0.790340182096E+02   -0.17829E+02   -0.15333E+02  7850   0.663E+01    0.447E+01
DAV:   3    -0.603180379354E+02    0.18716E+02   -0.74655E+01  6330   0.459E+01    0.328E+00
DAV:   4    -0.603875257008E+02   -0.69488E-01   -0.19887E+00  6790   0.458E+00    0.147E+00
DAV:   5    -0.603564156562E+02    0.31110E-01   -0.98361E-02  7270   0.133E+00    0.847E-01
DAV:   6    -0.603476351941E+02    0.87805E-02   -0.42116E-02  6840   0.980E-01    0.597E-01
DAV:   7    -0.603460514025E+02    0.15838E-02   -0.48270E-03  7380   0.339E-01    0.337E-01
DAV:   8    -0.603457542168E+02    0.29719E-03   -0.87958E-04  8130   0.120E-01    0.187E-01
DAV:   9    -0.603457719452E+02   -0.17728E-04   -0.47704E-04  8140   0.850E-02    0.644E-02
DAV:  10    -0.603458192072E+02   -0.47262E-04   -0.14093E-04  8240   0.412E-02    0.386E-02
DAV:  11    -0.603458281438E+02   -0.89365E-05   -0.10326E-05  3210   0.202E-02
   5 F= -.60345828E+02 E0= -.60345209E+02  d E =-.365066E-01
 BRION: g(F)=  0.817E-03 g(S)=  0.172E-03 retain N=  1 mean eig= 5.91
 eig:   5.910
 bond charge predicted
       N       E                     dE             d eps       ncg     rms          rms(c)
DAV:   1    -0.603472740917E+02   -0.14549E-02   -0.16759E-02  4750   0.841E-01    0.297E-01
DAV:   2    -0.603651969018E+02   -0.17923E-01   -0.63277E-02  7380   0.159E+00    0.209E+00
DAV:   3    -0.603472872334E+02    0.17910E-01   -0.56675E-02  6540   0.141E+00    0.179E-01
DAV:   4    -0.603468904334E+02    0.39680E-03   -0.18176E-03  5760   0.197E-01    0.755E-02
DAV:   5    -0.603467585442E+02    0.13189E-03   -0.27132E-04  7800   0.106E-01    0.104E-02
DAV:   6    -0.603467563364E+02    0.22078E-05   -0.10003E-05  2930   0.234E-02
   6 F= -.60346756E+02 E0= -.60346139E+02  d E =-.928193E-03
 BRION: g(F)=  0.754E-03 g(S)=  0.813E-04 retain N=  2 mean eig= 4.15
 eig:   5.903  2.390
 bond charge predicted
       N       E                     dE             d eps       ncg     rms          rms(c)
DAV:   1    -0.603505877557E+02   -0.38292E-02   -0.85469E-02  4520   0.171E+00    0.553E-01
DAV:   2    -0.604130346043E+02   -0.62447E-01   -0.22013E-01  7260   0.296E+00    0.383E+00
DAV:   3    -0.603509364490E+02    0.62098E-01   -0.22792E-01  6520   0.264E+00    0.356E-01
DAV:   4    -0.603492317143E+02    0.17047E-02   -0.66408E-03  6740   0.380E-01    0.137E-01
DAV:   5    -0.603487672404E+02    0.46447E-03   -0.96728E-04  8260   0.195E-01    0.231E-02
DAV:   6    -0.603487516926E+02    0.15548E-04   -0.54052E-05  5400   0.439E-02    0.153E-02
DAV:   7    -0.603487544485E+02   -0.27559E-05   -0.55884E-06  2780   0.163E-02
   7 F= -.60348754E+02 E0= -.60348143E+02  d E =-.199811E-02
 BRION: g(F)=  0.631E-03 g(S)=  0.450E-04 retain N=  1 mean eig= 3.02
 eig:   3.015
 bond charge predicted
       N       E                     dE             d eps       ncg     rms          rms(c)
DAV:   1    -0.603512395643E+02   -0.24879E-02   -0.59596E-02  4500   0.133E+00    0.402E-01
DAV:   2    -0.603851510028E+02   -0.33911E-01   -0.11945E-01  7180   0.217E+00    0.276E+00
DAV:   3    -0.603511743926E+02    0.33977E-01   -0.10557E-01  6570   0.193E+00    0.225E-01
DAV:   4    -0.603505053973E+02    0.66900E-03   -0.32589E-03  6120   0.259E-01    0.845E-02
DAV:   5    -0.603503017946E+02    0.20360E-03   -0.44530E-04  8160   0.131E-01    0.158E-02
DAV:   6    -0.603502969275E+02    0.48671E-05   -0.19636E-05  3760   0.291E-02
   8 F= -.60350297E+02 E0= -.60349686E+02  d E =-.154248E-02
 BRION: g(F)=  0.531E-03 g(S)=  0.387E-04 retain N=  2 mean eig= 2.09
 eig:   2.086  2.086
 bond charge predicted
       N       E                     dE             d eps       ncg     rms          rms(c)
DAV:   1    -0.603502691797E+02    0.32615E-04   -0.27054E-03  5750   0.386E-01    0.155E-01
DAV:   2    -0.603545874563E+02   -0.43183E-02   -0.18817E-02  7460   0.845E-01    0.849E-01
DAV:   3    -0.603501089674E+02    0.44785E-02   -0.14113E-02  6130   0.729E-01    0.345E-02
DAV:   4    -0.603501324493E+02   -0.23482E-04   -0.36462E-04  5400   0.752E-02    0.255E-02
DAV:   5    -0.603501288908E+02    0.35585E-05   -0.33890E-05  4440   0.347E-02
   9 F= -.60350129E+02 E0= -.60349517E+02  d E =0.168037E-03
 BRION: g(F)=  0.545E-03 g(S)=  0.157E-04 retain N=  1 mean eig= 1.91
 eig:   1.907
 bond charge predicted
       N       E                     dE             d eps       ncg     rms          rms(c)
DAV:   1    -0.603505942876E+02   -0.46184E-03   -0.43035E-03  4540   0.378E-01    0.101E-01
DAV:   2    -0.603523981237E+02   -0.18038E-02   -0.72511E-03  6590   0.539E-01    0.590E-01
DAV:   3    -0.603505238747E+02    0.18742E-02   -0.58415E-03  6150   0.470E-01    0.315E-02
DAV:   4    -0.603505306699E+02   -0.67952E-05   -0.15332E-04  5240   0.541E-02    0.154E-02
DAV:   5    -0.603505286913E+02    0.19786E-05   -0.10464E-05  2970   0.219E-02
  10 F= -.60350529E+02 E0= -.60349917E+02  d E =-.399801E-03
 BRION: g(F)=  0.523E-03 g(S)=  0.119E-04 retain N=  1 mean eig= 4.84
 eig:   4.839
