DFT routine                             
           1
     3.542920    0.000000    0.000000
     0.000000    3.542920    0.000000
     0.000000    0.000000    7.355770
   Ca   Fe   B 
   2   2   2
Direct configuration=     1
   0.50000000  0.50000000  0.51283000
   0.50000000  0.50000000  0.01283000
   0.00000000  0.00000000  0.75219000
   0.00000000  0.00000000  0.25219000
   0.00000000  0.00000000  0.01386000
   0.00000000  0.00000000  0.51386000
DFT routine                             
           1
     3.576323    0.000000    0.000000
     0.000000    3.576323    0.000000
     0.000000   -0.000000    7.481496
   Ca   Fe   B 
   2   2   2
Direct configuration=     2
   0.50000000  0.50000000  0.51271750
   0.50000000  0.50000000  0.01271750
  -0.00000000 -0.00000000  0.75385447
  -0.00000000 -0.00000000  0.25385447
  -0.00000000 -0.00000000  0.01230803
  -0.00000000 -0.00000000  0.51230803
