DFT routine                             
           1
     3.416010    0.000000    0.000000
     0.000000    7.366590    0.000000
     0.000000    0.000000    7.283820
   Ca   Fe   B 
   4   4   4
Direct configuration=     1
   0.99733000  0.00116000  0.75000000
   0.00267000  0.99884000  0.25000000
   0.99733000  0.49884000  0.25000000
   0.00267000  0.50116000  0.75000000
   0.50354000  0.75000000  0.50000000
   0.49646000  0.25000000  0.50000000
   0.49646000  0.25000000  0.00000000
   0.50354000  0.75000000  0.00000000
   0.51925000  0.75282000  0.75000000
   0.48075000  0.24718000  0.25000000
   0.51925000  0.74718000  0.25000000
   0.48075000  0.25282000  0.75000000
DFT routine                             
           1
     3.445219    0.000000   -0.000000
     0.000000    7.442899    0.000000
     0.000000    0.000000    7.412934
   Ca   Fe   B 
   4   4   4
Direct configuration=     2
   0.99759484  0.00128159  0.75000000
   0.00240516  0.99871841  0.25000000
   0.99759484  0.49871841  0.25000000
   0.00240516  0.50128159  0.75000000
   0.50265309  0.75000000  0.50000000
   0.49734691  0.25000000  0.50000000
   0.49734691  0.25000000  0.00000000
   0.50265309  0.75000000  0.00000000
   0.51896828  0.75270571  0.75000000
   0.48103172  0.24729429  0.25000000
   0.51896828  0.74729429  0.25000000
   0.48103172  0.25270571  0.75000000
DFT routine                             
           1
     3.513413    0.000000   -0.000000
     0.000000    7.615251    0.000000
     0.000000    0.000000    7.662119
   Ca   Fe   B 
   4   4   4
Direct configuration=     3
   0.99825298  0.00155317  0.75000000
   0.00174702  0.99844683  0.25000000
   0.99825298  0.49844683  0.25000000
   0.00174702  0.50155317  0.75000000
   0.50097783  0.75000000  0.50000000
   0.49902217  0.25000000  0.50000000
   0.49902217  0.25000000  0.00000000
   0.50097783  0.75000000 -0.00000000
   0.51748805  0.75239454  0.75000000
   0.48251195  0.24760546  0.25000000
   0.51748805  0.74760546  0.25000000
   0.48251195  0.25239454  0.75000000
DFT routine                             
           1
     3.519398    0.000000   -0.000000
     0.000000    7.630730    0.000000
     0.000000    0.000000    7.649258
   Ca   Fe   B 
   4   4   4
Direct configuration=     4
   0.99837308  0.00158373  0.75000000
   0.00162692  0.99841627  0.25000000
   0.99837308  0.49841627  0.25000000
   0.00162692  0.50158373  0.75000000
   0.50093221  0.75000000  0.50000000
   0.49906779  0.25000000  0.50000000
   0.49906779  0.25000000  0.00000000
   0.50093221  0.75000000 -0.00000000
   0.51678822  0.75232661  0.75000000
   0.48321178  0.24767339  0.25000000
   0.51678822  0.74767339  0.25000000
   0.48321178  0.25232661  0.75000000
DFT routine                             
           1
     3.556215    0.000000    0.000000
     0.000000    7.726532    0.000000
     0.000000    0.000000    7.628139
   Ca   Fe   B 
   4   4   4
Direct configuration=     5
   0.99906517  0.00174901  0.75000000
   0.00093483  0.99825099  0.25000000
   0.99906517  0.49825099  0.25000000
   0.00093483  0.50174901  0.75000000
   0.50034962  0.75000000  0.50000000
   0.49965038  0.25000000  0.50000000
   0.49965038  0.25000000  0.00000000
   0.50034962  0.75000000 -0.00000000
   0.51303156  0.75195232  0.75000000
   0.48696844  0.24804768  0.25000000
   0.51303156  0.74804768  0.25000000
   0.48696844  0.25195232  0.75000000
DFT routine                             
           1
     3.555369    0.000000    0.000000
     0.000000    7.725932    0.000000
     0.000000    0.000000    7.625978
   Ca   Fe   B 
   4   4   4
Direct configuration=     6
   0.99912106  0.00174035  0.75000000
   0.00087894  0.99825965  0.25000000
   0.99912106  0.49825965  0.25000000
   0.00087894  0.50174035  0.75000000
   0.50021048  0.75000000  0.50000000
   0.49978952  0.25000000  0.50000000
   0.49978952  0.25000000  0.00000000
   0.50021048  0.75000000 -0.00000000
   0.51267482  0.75192887  0.75000000
   0.48732518  0.24807113  0.25000000
   0.51267482  0.74807113  0.25000000
   0.48732518  0.25192887  0.75000000
DFT routine                             
           1
     3.553446    0.000000    0.000000
     0.000000    7.724807    0.000000
     0.000000    0.000000    7.622843
   Ca   Fe   B 
   4   4   4
Direct configuration=     7
   0.99925855  0.00171521  0.75000000
   0.00074145  0.99828479  0.25000000
   0.99925855  0.49828479  0.25000000
   0.00074145  0.50171521  0.75000000
   0.49984957  0.75000000  0.50000000
   0.50015043  0.25000000  0.50000000
   0.50015043  0.25000000  0.00000000
   0.49984957  0.75000000 -0.00000000
   0.51178446  0.75187102  0.75000000
   0.48821554  0.24812898  0.25000000
   0.51178446  0.74812898  0.25000000
   0.48821554  0.25187102  0.75000000
DFT routine                             
           1
     3.551758    0.000000    0.000000
     0.000000    7.723888    0.000000
     0.000000    0.000000    7.621605
   Ca   Fe   B 
   4   4   4
Direct configuration=     8
   0.99937450  0.00168898  0.75000000
   0.00062550  0.99831102  0.25000000
   0.99937450  0.49831102  0.25000000
   0.00062550  0.50168898  0.75000000
   0.49953352  0.75000000  0.50000000
   0.50046648  0.25000000  0.50000000
   0.50046648  0.25000000  0.00000000
   0.49953352  0.75000000 -0.00000000
   0.51099817  0.75182097  0.75000000
   0.48900183  0.24817903  0.25000000
   0.51099817  0.74817903  0.25000000
   0.48900183  0.25182097  0.75000000
DFT routine                             
           1
     3.552142    0.000000    0.000000
     0.000000    7.724414    0.000000
     0.000000    0.000000    7.622647
   Ca   Fe   B 
   4   4   4
Direct configuration=     9
   0.99935741  0.00169047  0.75000000
   0.00064259  0.99830953  0.25000000
   0.99935741  0.49830953  0.25000000
   0.00064259  0.50169047  0.75000000
   0.49957498  0.75000000  0.50000000
   0.50042502  0.25000000  0.50000000
   0.50042502  0.25000000  0.00000000
   0.49957498  0.75000000 -0.00000000
   0.51109587  0.75182753  0.75000000
   0.48890413  0.24817247  0.25000000
   0.51109587  0.74817247  0.25000000
   0.48890413  0.25182753  0.75000000
DFT routine                             
           1
     3.552208    0.000000    0.000000
     0.000000    7.725120    0.000000
     0.000000    0.000000    7.623570
   Ca   Fe   B 
   4   4   4
Direct configuration=    10
   0.99938279  0.00167952  0.75000000
   0.00061721  0.99832048  0.25000000
   0.99938279  0.49832048  0.25000000
   0.00061721  0.50167952  0.75000000
   0.49949911  0.75000000  0.50000000
   0.50050089  0.25000000  0.50000000
   0.50050089  0.25000000  0.00000000
   0.49949911  0.75000000 -0.00000000
   0.51087767  0.75181431  0.75000000
   0.48912233  0.24818569  0.25000000
   0.51087767  0.74818569  0.25000000
   0.48912233  0.25181431  0.75000000
