DFT routine                             
           1
    13.692000    0.000000    0.000000
     0.000000    6.679929    0.184615
     0.000000    0.000000    6.682480
   Zr   Ni   H 
  14  20  14
Direct configuration=     1
   0.98900000  0.95960000  0.52340000
   0.18480000  0.48170000  0.61350000
   0.81520000  0.61350000  0.48170000
   0.48900000  0.02340000  0.45960000
   0.75720000  0.05210000  0.49450000
   0.51100000  0.45960000  0.02340000
   0.01100000  0.52340000  0.95960000
   0.68480000  0.11350000  0.98170000
   0.31520000  0.98170000  0.11350000
   0.24280000  0.49450000  0.05210000
   0.50000000  0.53750000  0.53750000
   0.25720000  0.99450000  0.55210000
   0.74280000  0.55210000  0.99450000
   0.00000000  0.03750000  0.03750000
   0.66190000  0.33250000  0.29530000
   0.88500000  0.31490000  0.26850000
   0.64100000  0.33660000  0.64080000
   0.86490000  0.19790000  0.80390000
   0.49420000  0.82310000  0.11670000
   0.99420000  0.61670000  0.32310000
   0.36490000  0.30390000  0.69790000
   0.33810000  0.29530000  0.33250000
   0.11500000  0.26850000  0.31490000
   0.35900000  0.64080000  0.33660000
   0.50580000  0.11670000  0.82310000
   0.13510000  0.80390000  0.19790000
   0.14100000  0.14080000  0.83660000
   0.38500000  0.76850000  0.81490000
   0.16190000  0.79530000  0.83250000
   0.83810000  0.83250000  0.79530000
   0.61500000  0.81490000  0.76850000
   0.85900000  0.83660000  0.14080000
   0.00580000  0.32310000  0.61670000
   0.63510000  0.69790000  0.30390000
   0.47106000  0.34429000  0.76932000
   0.74101000  0.34794000  0.50425000
   0.00000000  0.60158000  0.60158000
   0.97106000  0.26932000  0.84429000
   0.65312000  0.53273000  0.46827000
   0.25899000  0.50425000  0.34794000
   0.34688000  0.46827000  0.53273000
   0.15312000  0.96827000  0.03273000
   0.75899000  0.84794000  0.00425000
   0.50000000  0.10158000  0.10158000
   0.52894000  0.76932000  0.34429000
   0.02894000  0.84429000  0.26932000
   0.24101000  0.00425000  0.84794000
   0.84688000  0.03273000  0.96827000
DFT routine                             
           1
    13.637802   -0.000000    0.000000
     0.000000    6.676807    0.185497
    -0.000000    0.000967    6.679384
   Zr   Ni   H 
  14  20  14
Direct configuration=     2
   0.98929171  0.95924347  0.52500183
   0.18465340  0.48254541  0.61134355
   0.81534660  0.61134355  0.48254541
   0.48929171  0.02500183  0.45924347
   0.75689369  0.05170510  0.49417483
   0.51070829  0.45924347  0.02500183
   0.01070829  0.52500183  0.95924347
   0.68465340  0.11134355  0.98254541
   0.31534660  0.98254541  0.11134355
   0.24310631  0.49417483  0.05170510
   0.50000000  0.53746779  0.53746779
   0.25689369  0.99417483  0.55170510
   0.74310631  0.55170510  0.99417483
  -0.00000000  0.03746779  0.03746779
   0.66183699  0.33261312  0.29360249
   0.88504177  0.31430755  0.26801330
   0.64152162  0.33605548  0.64435529
   0.86380163  0.19971338  0.80328569
   0.49412692  0.82448021  0.11481382
   0.99412692  0.61481382  0.32448021
   0.36380163  0.30328569  0.69971338
   0.33816301  0.29360249  0.33261312
   0.11495823  0.26801330  0.31430755
   0.35847838  0.64435529  0.33605548
   0.50587308  0.11481382  0.82448021
   0.13619837  0.80328569  0.19971338
   0.14152162  0.14435529  0.83605548
   0.38504177  0.76801330  0.81430755
   0.16183699  0.79360249  0.83261312
   0.83816301  0.83261312  0.79360249
   0.61495823  0.81430755  0.76801330
   0.85847838  0.83605548  0.14435529
   0.00587308  0.32448021  0.61481382
   0.63619837  0.69971338  0.30328569
   0.47118062  0.34405188  0.76942223
   0.74114970  0.34752212  0.50420617
  -0.00000000  0.60132667  0.60132667
   0.97118062  0.26942223  0.84405188
   0.65317767  0.53303571  0.46859289
   0.25885030  0.50420617  0.34752212
   0.34682233  0.46859289  0.53303571
   0.15317767  0.96859289  0.03303571
   0.75885030  0.84752212  0.00420617
   0.50000000  0.10132667  0.10132667
   0.52881938  0.76942223  0.34405188
   0.02881938  0.84405188  0.26942223
   0.24114970  0.00420617  0.84752212
   0.84682233  0.03303571  0.96859289
DFT routine                             
           1
    13.220143   -0.000000    0.000000
     0.000000    6.654729    0.194488
    -0.000000    0.010565    6.657562
   Zr   Ni   H 
  14  20  14
Direct configuration=     3
   0.99180537  0.95605582  0.53741239
   0.18345269  0.49007854  0.59420083
   0.81654731  0.59420083  0.49007854
   0.49180537  0.03741239  0.45605582
   0.75430203  0.04834265  0.49138847
   0.50819463  0.45605582  0.03741239
   0.00819463  0.53741239  0.95605582
   0.68345269  0.09420083  0.99007854
   0.31654731  0.99007854  0.09420083
   0.24569797  0.49138847  0.04834265
   0.50000000  0.53715205  0.53715205
   0.25430203  0.99138847  0.54834265
   0.74569797  0.54834265  0.99138847
   0.00000000  0.03715205  0.03715205
   0.66109010  0.33410605  0.28274686
   0.88536268  0.30899123  0.26377073
   0.64602065  0.33222899  0.67078183
   0.85527892  0.21413192  0.79893420
   0.49408170  0.83504508  0.10057989
   0.99408170  0.60057989  0.33504508
   0.35527892  0.29893420  0.71413192
   0.33890990  0.28274686  0.33410605
   0.11463732  0.26377073  0.30899123
   0.35397935  0.67078183  0.33222899
   0.50591830  0.10057989  0.83504508
   0.14472108  0.79893420  0.21413192
   0.14602065  0.17078183  0.83222899
   0.38536268  0.76377073  0.80899123
   0.16109010  0.78274686  0.83410605
   0.83890990  0.83410605  0.78274686
   0.61463732  0.80899123  0.76377073
   0.85397935  0.83222899  0.17078183
   0.00591830  0.33504508  0.60057989
   0.64472108  0.71413192  0.29893420
   0.47201508  0.34140923  0.77034346
   0.74202503  0.34365742  0.50383508
   0.00000000  0.59935138  0.59935138
   0.97201508  0.27034346  0.84140923
   0.65362175  0.53554919  0.47078669
   0.25797497  0.50383508  0.34365742
   0.34637825  0.47078669  0.53554919
   0.15362175  0.97078669  0.03554919
   0.75797497  0.84365742  0.00383508
   0.50000000  0.09935138  0.09935138
   0.52798492  0.77034346  0.34140923
   0.02798492  0.84140923  0.27034346
   0.24202503  0.00383508  0.84365742
   0.84637825  0.03554919  0.97078669
