DFT routine                             
           1
     3.439312    0.000000    0.000000
     0.000000    3.439312    0.000000
     0.000000    0.000000    3.439312
   Li
   2
Direct configuration=     1
   0.00000000  0.00000000  0.00000000
   0.50000000  0.50000000  0.50000000
