DFT routine                             
           1
     4.312714    0.000000    2.884800
     1.541026    4.027994    2.884800
     0.000000    0.000000    5.188610
   Ca   Fe   B 
   3   3   3
Direct configuration=     1
   0.40942000  0.48657000  0.53213000
   0.48657000  0.53213000  0.40942000
   0.53213000  0.40942000  0.48657000
   0.06912000  0.44833000  0.44833000
   0.44833000  0.44833000  0.06912000
   0.44833000  0.06912000  0.44833000
   0.09635000  0.38020000  0.38020000
   0.38020000  0.38020000  0.09635000
   0.38020000  0.09635000  0.38020000
