DFT routine                             
           1
     3.499570    0.000000    0.000000
     0.000000    4.642220    0.000000
     0.000000    0.000000    7.179030
   Ca   Fe   B    P 
   2   2   2   2
Direct configuration=     1
   0.00000000  0.00000000  0.25000000
   0.00000000  0.00000000  0.75000000
   0.50000000  0.50000000  0.75000000
   0.50000000  0.50000000  0.25000000
   0.50000000  0.50000000  0.00000000
   0.50000000  0.50000000  0.50000000
   0.00000000  0.50000000  0.00000000
   0.00000000  0.50000000  0.50000000
DFT routine                             
           1
     3.575267    0.000000    0.000000
     0.000000    4.660724    0.000000
     0.000000    0.000000    7.369056
   Ca   Fe   B    P 
   2   2   2   2
Direct configuration=     2
  -0.00000000 -0.00000000  0.25000000
  -0.00000000 -0.00000000  0.75000000
   0.50000000  0.50000000  0.75000000
   0.50000000  0.50000000  0.25000000
   0.50000000  0.50000000 -0.00000000
   0.50000000  0.50000000  0.50000000
  -0.00000000  0.50000000 -0.00000000
  -0.00000000  0.50000000  0.50000000
DFT routine                             
           1
     3.700065    0.000000    0.000000
     0.000000    4.683517    0.000000
     0.000000    0.000000    7.640835
   Ca   Fe   B    P 
   2   2   2   2
Direct configuration=     3
  -0.00000000  0.00000000  0.25000000
  -0.00000000  0.00000000  0.75000000
   0.50000000  0.50000000  0.75000000
   0.50000000  0.50000000  0.25000000
   0.50000000  0.50000000 -0.00000000
   0.50000000  0.50000000  0.50000000
  -0.00000000  0.50000000 -0.00000000
  -0.00000000  0.50000000  0.50000000
